
     Program PWSCF v.7.1 starts on  2Feb2025 at 11:35:11 

     This program is part of the open-source Quantum ESPRESSO suite
     for quantum simulation of materials; please cite
         "P. Giannozzi et al., J. Phys.:Condens. Matter 21 395502 (2009);
         "P. Giannozzi et al., J. Phys.:Condens. Matter 29 465901 (2017);
         "P. Giannozzi et al., J. Chem. Phys. 152 154105 (2020);
          URL http://www.quantum-espresso.org", 
     in publications or presentations arising from this work. More details at
     http://www.quantum-espresso.org/quote

     Parallel version (MPI), running on     1 processors

     MPI processes distributed on     1 nodes
     0 MiB available memory on the printing compute node when the environment starts

     Waiting for input...
     Reading input from standard input

     Current dimensions of program PWSCF are:
     Max number of different atomic species (ntypx) = 10
     Max number of k-points (npk) =  40000
     Max angular momentum in pseudopotentials (lmaxx) =  4

     Atomic positions and unit cell read from directory:
     ./work/calculation.save/

     file Fe.pbe-spn-kjpaw_psl.1.0.0.UPF: wavefunction(s)  3P 3D renormalized
     file Se.pbe-dn-kjpaw_psl.1.0.0.UPF: wavefunction(s)  4S 4P 3D renormalized

     Subspace diagonalization in iterative solution of the eigenvalue problem:
     a serial algorithm will be used


     G-vector sticks info
     --------------------
     sticks:   dense  smooth     PW     G-vecs:    dense   smooth      PW
     Sum         633     633    193                11981    11981    2103

     Using Slab Decomposition



     bravais-lattice index     =            0
     lattice parameter (alat)  =       5.7523  a.u.
     unit-cell volume          =     190.3406 (a.u.)^3
     number of atoms/cell      =            2
     number of atomic types    =            2
     number of electrons       =        32.00
     number of Kohn-Sham states=           20
     kinetic-energy cutoff     =      60.0000  Ry
     charge density cutoff     =     240.0000  Ry
     Exchange-correlation= SLA  PW   PBX  PBC
                           (   1   4   3   4   0   0   0)

     celldm(1)=   5.752330  celldm(2)=   0.000000  celldm(3)=   0.000000
     celldm(4)=   0.000000  celldm(5)=   0.000000  celldm(6)=   0.000000

     crystal axes: (cart. coord. in units of alat)
               a(1) = (   1.000000   0.000000   0.000000 )  
               a(2) = (   0.000000   1.000000   0.000000 )  
               a(3) = (   0.000000   0.000000   1.000000 )  

     reciprocal axes: (cart. coord. in units 2 pi/alat)
               b(1) = (  1.000000  0.000000  0.000000 )  
               b(2) = (  0.000000  1.000000  0.000000 )  
               b(3) = (  0.000000  0.000000  1.000000 )  


     PseudoPot. # 1 for Fe read from file:
     ./pseudo/Fe.pbe-spn-kjpaw_psl.1.0.0.UPF
     MD5 check sum: fc81f059e5c5069939230b1155715ae8
     Pseudo is Projector augmented-wave + core cor, Zval = 16.0
     Generated using &quot;atomic&quot; code by A. Dal Corso  v.6.3
     Shape of augmentation charge: PSQ
     Using radial grid of 1191 points,  6 beta functions with: 
                l(1) =   0
                l(2) =   0
                l(3) =   1
                l(4) =   1
                l(5) =   2
                l(6) =   2
     Q(r) pseudized with 0 coefficients 


     PseudoPot. # 2 for Se read from file:
     ./pseudo/Se.pbe-dn-kjpaw_psl.1.0.0.UPF
     MD5 check sum: ac240dd2bae32a30e0bf3a38df9c8785
     Pseudo is Projector augmented-wave + core cor, Zval = 16.0
     Generated using &quot;atomic&quot; code by A. Dal Corso  v.6.3
     Shape of augmentation charge: PSQ
     Using radial grid of 1211 points,  6 beta functions with: 
                l(1) =   0
                l(2) =   0
                l(3) =   1
                l(4) =   1
                l(5) =   2
                l(6) =   2
     Q(r) pseudized with 0 coefficients 


     atomic species   valence    mass     pseudopotential
        Fe            16.00    55.84500     Fe( 1.00)
        Se            16.00    78.96000     Se( 1.00)

     No symmetry found



   Cartesian axes

     site n.     atom                  positions (alat units)
         1           Fe  tau(   1) = (   0.0000000   0.0000000   0.0000000  )
         2           Se  tau(   2) = (   0.5000000   0.5000000   0.5000000  )

     number of k points=    36 (tetrahedron method)
                       cart. coord. in units 2pi/alat
        k(    1) = (   0.0000000   0.0000000   0.0000000), wk =   0.0312500
        k(    2) = (   0.0000000   0.0000000   0.2500000), wk =   0.0625000
        k(    3) = (   0.0000000   0.0000000  -0.5000000), wk =   0.0312500
        k(    4) = (   0.0000000   0.2500000   0.0000000), wk =   0.0625000
        k(    5) = (   0.0000000   0.2500000   0.2500000), wk =   0.0625000
        k(    6) = (   0.0000000   0.2500000  -0.5000000), wk =   0.0625000
        k(    7) = (   0.0000000   0.2500000  -0.2500000), wk =   0.0625000
        k(    8) = (   0.0000000  -0.5000000   0.0000000), wk =   0.0312500
        k(    9) = (   0.0000000  -0.5000000   0.2500000), wk =   0.0625000
        k(   10) = (   0.0000000  -0.5000000  -0.5000000), wk =   0.0312500
        k(   11) = (   0.2500000   0.0000000   0.0000000), wk =   0.0625000
        k(   12) = (   0.2500000   0.0000000   0.2500000), wk =   0.0625000
        k(   13) = (   0.2500000   0.0000000  -0.5000000), wk =   0.0625000
        k(   14) = (   0.2500000   0.0000000  -0.2500000), wk =   0.0625000
        k(   15) = (   0.2500000   0.2500000   0.0000000), wk =   0.0625000
        k(   16) = (   0.2500000   0.2500000   0.2500000), wk =   0.0625000
        k(   17) = (   0.2500000   0.2500000  -0.5000000), wk =   0.0625000
        k(   18) = (   0.2500000   0.2500000  -0.2500000), wk =   0.0625000
        k(   19) = (   0.2500000  -0.5000000   0.0000000), wk =   0.0625000
        k(   20) = (   0.2500000  -0.5000000   0.2500000), wk =   0.0625000
        k(   21) = (   0.2500000  -0.5000000  -0.5000000), wk =   0.0625000
        k(   22) = (   0.2500000  -0.5000000  -0.2500000), wk =   0.0625000
        k(   23) = (   0.2500000  -0.2500000   0.0000000), wk =   0.0625000
        k(   24) = (   0.2500000  -0.2500000   0.2500000), wk =   0.0625000
        k(   25) = (   0.2500000  -0.2500000  -0.5000000), wk =   0.0625000
        k(   26) = (   0.2500000  -0.2500000  -0.2500000), wk =   0.0625000
        k(   27) = (  -0.5000000   0.0000000   0.0000000), wk =   0.0312500
        k(   28) = (  -0.5000000   0.0000000   0.2500000), wk =   0.0625000
        k(   29) = (  -0.5000000   0.0000000  -0.5000000), wk =   0.0312500
        k(   30) = (  -0.5000000   0.2500000   0.0000000), wk =   0.0625000
        k(   31) = (  -0.5000000   0.2500000   0.2500000), wk =   0.0625000
        k(   32) = (  -0.5000000   0.2500000  -0.5000000), wk =   0.0625000
        k(   33) = (  -0.5000000   0.2500000  -0.2500000), wk =   0.0625000
        k(   34) = (  -0.5000000  -0.5000000   0.0000000), wk =   0.0312500
        k(   35) = (  -0.5000000  -0.5000000   0.2500000), wk =   0.0625000
        k(   36) = (  -0.5000000  -0.5000000  -0.5000000), wk =   0.0312500

     Dense  grid:    11981 G-vectors     FFT dimensions: (  30,  30,  30)

     Estimated max dynamical RAM per process >      41.84 MB

     Check: negative core charge=   -0.000008

     The potential is recalculated from file :
     ./work/calculation.save/charge-density

     Starting wfcs are   19 randomized atomic wfcs +    1 random wfcs
     Checking if some PAW data can be deallocated... 

     Band Structure Calculation
     Davidson diagonalization with overlap

     ethr =  3.13E-11,  avg # of iterations = 20.2

     total cpu time spent up to now is        5.1 secs

     End of band structure calculation

          k = 0.0000 0.0000 0.0000 (  1503 PWs)   bands (ev):

   -70.4077 -36.5017 -36.5017 -36.5017 -32.8917 -32.8917 -32.8803 -32.8803
   -32.8803  -0.5208  13.8463  13.8463  14.8606  14.8606  14.8606  15.7595
    15.7595  15.7595  19.3315  23.7299

          k = 0.0000 0.0000 0.2500 (  1482 PWs)   bands (ev):

   -70.4065 -36.5177 -36.5004 -36.5004 -32.8915 -32.8863 -32.8809 -32.8809
   -32.8798   0.2043  10.1611  13.9867  13.9867  14.1128  15.5030  15.8094
    17.3117  17.3117  21.1449  23.5172

          k = 0.0000 0.0000-0.5000 (  1510 PWs)   bands (ev):

   -70.4058 -36.5340 -36.4995 -36.4995 -32.8916 -32.8821 -32.8821 -32.8812
   -32.8797   1.2600   7.4286  13.5623  13.5623  14.4080  15.8601  16.3599
    18.8134  18.8134  22.0877  23.2392

          k = 0.0000 0.2500 0.0000 (  1482 PWs)   bands (ev):

   -70.4065 -36.5177 -36.5004 -36.5004 -32.8915 -32.8863 -32.8809 -32.8809
   -32.8798   0.2043  10.1611  13.9867  13.9867  14.1128  15.5030  15.8094
    17.3117  17.3117  21.1449  23.5172

          k = 0.0000 0.2500 0.2500 (  1492 PWs)   bands (ev):

   -70.4056 -36.5167 -36.5158 -36.4992 -32.8888 -32.8837 -32.8823 -32.8814
   -32.8808   0.8696  10.5141  11.0560  14.1567  14.5977  15.4473  16.0211
    16.1850  17.8354  22.2326  23.5681

          k = 0.0000 0.2500-0.5000 (  1498 PWs)   bands (ev):

   -70.4047 -36.5319 -36.5148 -36.4979 -32.8881 -32.8838 -32.8823 -32.8812
   -32.8791   1.8050   8.2863  11.6146  14.1633  14.4427  15.4731  16.3131
    16.5680  18.1845  20.0187  23.9016

          k = 0.0000 0.2500-0.2500 (  1492 PWs)   bands (ev):

   -70.4056 -36.5167 -36.5158 -36.4992 -32.8888 -32.8837 -32.8823 -32.8814
   -32.8808   0.8696  10.5141  11.0560  14.1567  14.5977  15.4473  16.0211
    16.1850  17.8354  22.2326  23.5681

          k = 0.0000-0.5000 0.0000 (  1510 PWs)   bands (ev):

   -70.4058 -36.5340 -36.4995 -36.4995 -32.8916 -32.8821 -32.8821 -32.8812
   -32.8797   1.2600   7.4286  13.5623  13.5623  14.4080  15.8601  16.3599
    18.8134  18.8134  22.0877  23.2392

          k = 0.0000-0.5000 0.2500 (  1498 PWs)   bands (ev):

   -70.4047 -36.5319 -36.5148 -36.4979 -32.8881 -32.8838 -32.8823 -32.8812
   -32.8791   1.8050   8.2863  11.6146  14.1633  14.4427  15.4731  16.3131
    16.5680  18.1845  20.0187  23.9016

          k = 0.0000-0.5000-0.5000 (  1492 PWs)   bands (ev):

   -70.4036 -36.5300 -36.5300 -36.4962 -32.8860 -32.8856 -32.8826 -32.8826
   -32.8757   2.5283   9.6301   9.6301  13.5812  15.1366  15.1366  15.9063
    16.3534  17.1553  18.2210  26.7441

          k = 0.2500 0.0000 0.0000 (  1482 PWs)   bands (ev):

   -70.4065 -36.5177 -36.5004 -36.5004 -32.8915 -32.8863 -32.8809 -32.8809
   -32.8798   0.2043  10.1611  13.9867  13.9867  14.1128  15.5030  15.8094
    17.3117  17.3117  21.1449  23.5172

          k = 0.2500 0.0000 0.2500 (  1492 PWs)   bands (ev):

   -70.4056 -36.5167 -36.5158 -36.4992 -32.8888 -32.8837 -32.8823 -32.8814
   -32.8808   0.8696  10.5141  11.0560  14.1567  14.5977  15.4473  16.0211
    16.1850  17.8354  22.2326  23.5681

          k = 0.2500 0.0000-0.5000 (  1498 PWs)   bands (ev):

   -70.4047 -36.5319 -36.5148 -36.4979 -32.8881 -32.8838 -32.8823 -32.8812
   -32.8791   1.8050   8.2863  11.6146  14.1633  14.4427  15.4731  16.3131
    16.5680  18.1845  20.0187  23.9016

          k = 0.2500 0.0000-0.2500 (  1492 PWs)   bands (ev):

   -70.4056 -36.5167 -36.5158 -36.4992 -32.8888 -32.8837 -32.8823 -32.8814
   -32.8808   0.8696  10.5141  11.0560  14.1567  14.5977  15.4473  16.0211
    16.1850  17.8354  22.2326  23.5681

          k = 0.2500 0.2500 0.0000 (  1492 PWs)   bands (ev):

   -70.4056 -36.5167 -36.5158 -36.4992 -32.8888 -32.8837 -32.8823 -32.8814
   -32.8808   0.8696  10.5141  11.0560  14.1567  14.5977  15.4473  16.0211
    16.1850  17.8354  22.2326  23.5681

          k = 0.2500 0.2500 0.2500 (  1499 PWs)   bands (ev):

   -70.4047 -36.5152 -36.5147 -36.5147 -32.8837 -32.8837 -32.8827 -32.8821
   -32.8821   1.5096  11.2289  11.2289  11.4516  15.0500  15.0500  15.8749
    16.9239  16.9239  21.9977  24.2639

          k = 0.2500 0.2500-0.5000 (  1488 PWs)   bands (ev):

   -70.4036 -36.5304 -36.5134 -36.5132 -32.8841 -32.8834 -32.8828 -32.8821
   -32.8783   2.4021   8.9310  11.3877  12.7919  14.9379  15.0348  15.4789
    16.4498  18.0585  20.6086  21.3100

          k = 0.2500 0.2500-0.2500 (  1499 PWs)   bands (ev):

   -70.4047 -36.5152 -36.5147 -36.5147 -32.8837 -32.8837 -32.8827 -32.8821
   -32.8821   1.5096  11.2289  11.2289  11.4516  15.0500  15.0500  15.8749
    16.9239  16.9239  21.9977  24.2639

          k = 0.2500-0.5000 0.0000 (  1498 PWs)   bands (ev):

   -70.4047 -36.5319 -36.5148 -36.4979 -32.8881 -32.8838 -32.8823 -32.8812
   -32.8791   1.8050   8.2863  11.6146  14.1633  14.4427  15.4731  16.3131
    16.5680  18.1845  20.0187  23.9016

          k = 0.2500-0.5000 0.2500 (  1488 PWs)   bands (ev):

   -70.4036 -36.5304 -36.5134 -36.5132 -32.8841 -32.8834 -32.8828 -32.8821
   -32.8783   2.4021   8.9310  11.3877  12.7919  14.9378  15.0348  15.4789
    16.4498  18.0585  20.6086  21.3100

          k = 0.2500-0.5000-0.5000 (  1496 PWs)   bands (ev):

   -70.4026 -36.5289 -36.5289 -36.5120 -32.8847 -32.8832 -32.8832 -32.8808
   -32.8758   3.2219   9.7547   9.7547  12.4408  14.6565  15.7604  15.7604
    16.3704  17.8609  18.2265  22.2022

          k = 0.2500-0.5000-0.2500 (  1488 PWs)   bands (ev):

   -70.4036 -36.5304 -36.5134 -36.5132 -32.8841 -32.8834 -32.8828 -32.8821
   -32.8783   2.4021   8.9310  11.3877  12.7919  14.9378  15.0348  15.4789
    16.4498  18.0585  20.6086  21.3100

          k = 0.2500-0.2500 0.0000 (  1492 PWs)   bands (ev):

   -70.4056 -36.5167 -36.5158 -36.4992 -32.8888 -32.8837 -32.8823 -32.8814
   -32.8808   0.8696  10.5141  11.0560  14.1567  14.5977  15.4473  16.0211
    16.1850  17.8354  22.2326  23.5681

          k = 0.2500-0.2500 0.2500 (  1499 PWs)   bands (ev):

   -70.4047 -36.5152 -36.5147 -36.5147 -32.8837 -32.8837 -32.8827 -32.8821
   -32.8821   1.5096  11.2289  11.2289  11.4516  15.0500  15.0500  15.8749
    16.9239  16.9239  21.9977  24.2639

          k = 0.2500-0.2500-0.5000 (  1488 PWs)   bands (ev):

   -70.4036 -36.5304 -36.5134 -36.5132 -32.8841 -32.8834 -32.8828 -32.8821
   -32.8783   2.4021   8.9310  11.3877  12.7919  14.9379  15.0348  15.4789
    16.4498  18.0585  20.6086  21.3100

          k = 0.2500-0.2500-0.2500 (  1499 PWs)   bands (ev):

   -70.4047 -36.5152 -36.5147 -36.5147 -32.8837 -32.8837 -32.8827 -32.8821
   -32.8821   1.5096  11.2289  11.2289  11.4516  15.0500  15.0500  15.8749
    16.9239  16.9239  21.9977  24.2639

          k =-0.5000 0.0000 0.0000 (  1510 PWs)   bands (ev):

   -70.4058 -36.5340 -36.4995 -36.4995 -32.8916 -32.8821 -32.8821 -32.8812
   -32.8797   1.2600   7.4286  13.5623  13.5623  14.4080  15.8601  16.3599
    18.8134  18.8134  22.0877  23.2392

          k =-0.5000 0.0000 0.2500 (  1498 PWs)   bands (ev):

   -70.4047 -36.5319 -36.5148 -36.4979 -32.8881 -32.8838 -32.8823 -32.8812
   -32.8791   1.8050   8.2863  11.6146  14.1633  14.4427  15.4731  16.3131
    16.5680  18.1845  20.0187  23.9016

          k =-0.5000 0.0000-0.5000 (  1492 PWs)   bands (ev):

   -70.4036 -36.5300 -36.5300 -36.4962 -32.8860 -32.8856 -32.8826 -32.8826
   -32.8757   2.5283   9.6301   9.6301  13.5812  15.1366  15.1366  15.9063
    16.3534  17.1553  18.2210  26.7441

          k =-0.5000 0.2500 0.0000 (  1498 PWs)   bands (ev):

   -70.4047 -36.5319 -36.5148 -36.4979 -32.8881 -32.8838 -32.8823 -32.8812
   -32.8791   1.8050   8.2863  11.6146  14.1633  14.4427  15.4731  16.3131
    16.5680  18.1845  20.0187  23.9016

          k =-0.5000 0.2500 0.2500 (  1488 PWs)   bands (ev):

   -70.4036 -36.5304 -36.5134 -36.5132 -32.8841 -32.8834 -32.8828 -32.8821
   -32.8783   2.4021   8.9310  11.3877  12.7919  14.9378  15.0348  15.4789
    16.4498  18.0585  20.6086  21.3100

          k =-0.5000 0.2500-0.5000 (  1496 PWs)   bands (ev):

   -70.4026 -36.5289 -36.5289 -36.5120 -32.8847 -32.8832 -32.8832 -32.8808
   -32.8758   3.2219   9.7547   9.7547  12.4408  14.6565  15.7604  15.7604
    16.3704  17.8609  18.2265  22.2022

          k =-0.5000 0.2500-0.2500 (  1488 PWs)   bands (ev):

   -70.4036 -36.5304 -36.5134 -36.5132 -32.8841 -32.8834 -32.8828 -32.8821
   -32.8783   2.4021   8.9310  11.3877  12.7919  14.9378  15.0348  15.4789
    16.4498  18.0585  20.6086  21.3100

          k =-0.5000-0.5000 0.0000 (  1492 PWs)   bands (ev):

   -70.4036 -36.5300 -36.5300 -36.4962 -32.8860 -32.8856 -32.8826 -32.8826
   -32.8757   2.5283   9.6301   9.6301  13.5812  15.1366  15.1366  15.9063
    16.3534  17.1553  18.2210  26.7441

          k =-0.5000-0.5000 0.2500 (  1496 PWs)   bands (ev):

   -70.4026 -36.5289 -36.5289 -36.5120 -32.8847 -32.8832 -32.8832 -32.8808
   -32.8758   3.2219   9.7547   9.7547  12.4408  14.6565  15.7604  15.7604
    16.3704  17.8609  18.2265  22.2022

          k =-0.5000-0.5000-0.5000 (  1472 PWs)   bands (ev):

   -70.4014 -36.5276 -36.5276 -36.5276 -32.8837 -32.8837 -32.8837 -32.8754
   -32.8754   4.2511   9.8704   9.8704   9.8704  16.3874  16.3874  17.9849
    17.9849  17.9849  18.0266  18.0266

     the Fermi energy is    16.2999 ev
     (compare with:    16.2991 eV, computed in scf)

     Writing all to output data dir ./work/calculation.save/

     init_run     :      0.50s CPU      0.51s WALL (       1 calls)
     electrons    :      4.10s CPU      4.44s WALL (       1 calls)

     Called by init_run:
     wfcinit      :      0.00s CPU      0.00s WALL (       1 calls)
     potinit      :      0.13s CPU      0.14s WALL (       1 calls)
     hinit0       :      0.35s CPU      0.35s WALL (       1 calls)

     Called by electrons:
     c_bands      :      4.09s CPU      4.44s WALL (       1 calls)
     v_of_rho     :      0.01s CPU      0.01s WALL (       1 calls)
     newd         :      0.01s CPU      0.02s WALL (       1 calls)
     PAW_pot      :      0.13s CPU      0.13s WALL (       1 calls)

     Called by c_bands:
     init_us_2    :      0.01s CPU      0.01s WALL (      36 calls)
     init_us_2:cp :      0.01s CPU      0.01s WALL (      36 calls)
     cegterg      :      3.80s CPU      4.11s WALL (      44 calls)

     Called by *egterg:
     cdiaghg      :      0.27s CPU      0.28s WALL (     762 calls)
     h_psi        :      3.05s CPU      3.18s WALL (     806 calls)
     s_psi        :      0.10s CPU      0.11s WALL (     806 calls)
     g_psi        :      0.01s CPU      0.01s WALL (     726 calls)

     Called by h_psi:
     h_psi:calbec :      0.12s CPU      0.17s WALL (     806 calls)
     vloc_psi     :      2.81s CPU      2.85s WALL (     806 calls)
     add_vuspsi   :      0.12s CPU      0.15s WALL (     806 calls)

     General routines
     calbec       :      0.12s CPU      0.17s WALL (     806 calls)
     fft          :      0.01s CPU      0.01s WALL (      12 calls)
     fftw         :      2.56s CPU      2.61s WALL (   18448 calls)
     davcio       :      0.00s CPU      0.01s WALL (      72 calls)

     Parallel routines

     PWSCF        :      4.79s CPU      5.17s WALL


   This run was terminated on:  11:35:16   2Feb2025            

=------------------------------------------------------------------------------=
   JOB DONE.
=------------------------------------------------------------------------------=
