
     Program PWSCF v.7.1 starts on 23Feb2025 at 21:58:37 

     This program is part of the open-source Quantum ESPRESSO suite
     for quantum simulation of materials; please cite
         "P. Giannozzi et al., J. Phys.:Condens. Matter 21 395502 (2009);
         "P. Giannozzi et al., J. Phys.:Condens. Matter 29 465901 (2017);
         "P. Giannozzi et al., J. Chem. Phys. 152 154105 (2020);
          URL http://www.quantum-espresso.org", 
     in publications or presentations arising from this work. More details at
     http://www.quantum-espresso.org/quote

     Parallel version (MPI), running on     1 processors

     MPI processes distributed on     1 nodes
     0 MiB available memory on the printing compute node when the environment starts

     Waiting for input...
     Reading input from standard input

     Current dimensions of program PWSCF are:
     Max number of different atomic species (ntypx) = 10
     Max number of k-points (npk) =  40000
     Max angular momentum in pseudopotentials (lmaxx) =  4
     file Se.pbe-dn-kjpaw_psl.1.0.0.UPF: wavefunction(s)  4S 4P 3D renormalized
     file Fe.pbe-spn-kjpaw_psl.1.0.0.UPF: wavefunction(s)  3P 3D renormalized
     Message from routine setup:
     using ibrav=0 with symmetry is DISCOURAGED, use correct ibrav instead

     Subspace diagonalization in iterative solution of the eigenvalue problem:
     a serial algorithm will be used


     G-vector sticks info
     --------------------
     sticks:   dense  smooth     PW     G-vecs:    dense   smooth      PW
     Sum         633     633    193                11981    11981    2103

     Using Slab Decomposition



     bravais-lattice index     =            0
     lattice parameter (alat)  =       5.7523  a.u.
     unit-cell volume          =     190.3406 (a.u.)^3
     number of atoms/cell      =            2
     number of atomic types    =            2
     number of electrons       =        32.00 (up:  16.00, down:  16.00)
     number of Kohn-Sham states=           20
     kinetic-energy cutoff     =      60.0000  Ry
     charge density cutoff     =     240.0000  Ry
     scf convergence threshold =      1.0E-06
     mixing beta               =       0.7000
     number of iterations used =            8  plain     mixing
     Exchange-correlation= SLA  PW   PBX  PBC
                           (   1   4   3   4   0   0   0)
     Hubbard projectors: ortho-atomic
     Hubbard parameters of DFT+U (Dudarev formulation) in eV:
     U(Se-3d) =  8.0000

     Internal variables: lda_plus_u =T, lda_plus_u_kind = 0

     celldm(1)=   5.752330  celldm(2)=   0.000000  celldm(3)=   0.000000
     celldm(4)=   0.000000  celldm(5)=   0.000000  celldm(6)=   0.000000

     crystal axes: (cart. coord. in units of alat)
               a(1) = (   1.000000   0.000000   0.000000 )  
               a(2) = (  -0.000000   1.000000   0.000000 )  
               a(3) = (   0.000000   0.000000   1.000000 )  

     reciprocal axes: (cart. coord. in units 2 pi/alat)
               b(1) = (  1.000000  0.000000 -0.000000 )  
               b(2) = (  0.000000  1.000000  0.000000 )  
               b(3) = (  0.000000 -0.000000  1.000000 )  


     PseudoPot. # 1 for Se read from file:
     ./pseudo/Se.pbe-dn-kjpaw_psl.1.0.0.UPF
     MD5 check sum: ac240dd2bae32a30e0bf3a38df9c8785
     Pseudo is Projector augmented-wave + core cor, Zval = 16.0
     Generated using &quot;atomic&quot; code by A. Dal Corso  v.6.3
     Shape of augmentation charge: PSQ
     Using radial grid of 1211 points,  6 beta functions with: 
                l(1) =   0
                l(2) =   0
                l(3) =   1
                l(4) =   1
                l(5) =   2
                l(6) =   2
     Q(r) pseudized with 0 coefficients 


     PseudoPot. # 2 for Fe read from file:
     ./pseudo/Fe.pbe-spn-kjpaw_psl.1.0.0.UPF
     MD5 check sum: fc81f059e5c5069939230b1155715ae8
     Pseudo is Projector augmented-wave + core cor, Zval = 16.0
     Generated using &quot;atomic&quot; code by A. Dal Corso  v.6.3
     Shape of augmentation charge: PSQ
     Using radial grid of 1191 points,  6 beta functions with: 
                l(1) =   0
                l(2) =   0
                l(3) =   1
                l(4) =   1
                l(5) =   2
                l(6) =   2
     Q(r) pseudized with 0 coefficients 


     atomic species   valence    mass     pseudopotential
        Se            16.00    78.96000     Se( 1.00)
        Fe            16.00    55.84500     Fe( 1.00)

     Starting magnetic structure 
     atomic species   magnetization
        Se           0.500
        Fe          -0.500

     48 Sym. Ops., with inversion, found



   Cartesian axes

     site n.     atom                  positions (alat units)
         1           Fe  tau(   1) = (   0.0000000   0.0000000   0.0000000  )
         2           Se  tau(   2) = (   0.5000000   0.5000000   0.5000000  )

     number of k points=    10 (tetrahedron method)
                       cart. coord. in units 2pi/alat
        k(    1) = (   0.0000000   0.0000000   0.0000000), wk =   0.0156250
        k(    2) = (   0.0000000   0.0000000   0.2500000), wk =   0.0937500
        k(    3) = (   0.0000000   0.0000000  -0.5000000), wk =   0.0468750
        k(    4) = (   0.0000000   0.2500000   0.2500000), wk =   0.1875000
        k(    5) = (   0.0000000   0.2500000  -0.5000000), wk =   0.1875000
        k(    6) = (   0.0000000  -0.5000000  -0.5000000), wk =   0.0468750
        k(    7) = (   0.2500000   0.2500000   0.2500000), wk =   0.1250000
        k(    8) = (   0.2500000   0.2500000  -0.5000000), wk =   0.1875000
        k(    9) = (   0.2500000  -0.5000000  -0.5000000), wk =   0.0937500
        k(   10) = (  -0.5000000  -0.5000000  -0.5000000), wk =   0.0156250

     Dense  grid:    11981 G-vectors     FFT dimensions: (  30,  30,  30)

     Estimated max dynamical RAM per process >      61.53 MB

     Check: negative core charge=   -0.000008
     Generating pointlists ...
     new r_m :   0.3572 (alat units)  2.0549 (a.u.) for type    1
     new r_m :   0.3572 (alat units)  2.0549 (a.u.) for type    2

     Initial potential from superposition of free atoms

     starting charge      31.9995, renormalised to      32.0000

     STARTING HUBBARD OCCUPATIONS:

     =================== HUBBARD OCCUPATIONS ===================
     ------------------------ ATOM    2 ------------------------
     Tr[ns(  2)] (up, down, total) =   5.00000  5.00000 10.00000
     Atomic magnetic moment for atom   2 =   0.00000
     SPIN  1
     eigenvalues:
       1.000  1.000  1.000  1.000  1.000
     eigenvectors (columns):
       1.000  0.000  0.000  0.000  0.000
       0.000  1.000  0.000  0.000  0.000
       0.000  0.000  1.000  0.000  0.000
       0.000  0.000  0.000  1.000  0.000
       0.000  0.000  0.000  0.000  1.000
     occupation matrix ns (before diag.):
       1.000  0.000  0.000  0.000  0.000
       0.000  1.000  0.000  0.000  0.000
       0.000  0.000  1.000  0.000  0.000
       0.000  0.000  0.000  1.000  0.000
       0.000  0.000  0.000  0.000  1.000
     SPIN  2
     eigenvalues:
       1.000  1.000  1.000  1.000  1.000
     eigenvectors (columns):
       1.000  0.000  0.000  0.000  0.000
       0.000  1.000  0.000  0.000  0.000
       0.000  0.000  1.000  0.000  0.000
       0.000  0.000  0.000  1.000  0.000
       0.000  0.000  0.000  0.000  1.000
     occupation matrix ns (before diag.):
       1.000  0.000  0.000  0.000  0.000
       0.000  1.000  0.000  0.000  0.000
       0.000  0.000  1.000  0.000  0.000
       0.000  0.000  0.000  1.000  0.000
       0.000  0.000  0.000  0.000  1.000

     Number of occupied Hubbard levels =   10.0000

     Atomic wfc used for Hubbard projectors are orthogonalized

     Starting wfcs are   19 randomized atomic wfcs +    1 random wfcs
     Checking if some PAW data can be deallocated... 

     total cpu time spent up to now is        1.0 secs

     Self-consistent Calculation

     iteration #  1     ecut=    60.00 Ry     beta= 0.70
     Davidson diagonalization with overlap
     ethr =  1.00E-02,  avg # of iterations =  4.3

     =================== HUBBARD OCCUPATIONS ===================
     ------------------------ ATOM    2 ------------------------
     Tr[ns(  2)] (up, down, total) =   4.99978  4.99929  9.99907
     Atomic magnetic moment for atom   2 =   0.00049
     SPIN  1
     eigenvalues:
       1.000  1.000  1.000  1.000  1.000
     eigenvectors (columns):
      -0.000 -0.000  0.000 -0.781  0.624
      -0.283 -0.956  0.080 -0.000 -0.000
      -0.584  0.105 -0.805 -0.000 -0.000
       0.000  0.000 -0.000 -0.624 -0.781
       0.761 -0.275 -0.588  0.000  0.000
     occupation matrix ns (before diag.):
       1.000 -0.000 -0.000 -0.000  0.000
      -0.000  1.000 -0.000  0.000  0.000
      -0.000 -0.000  1.000  0.000  0.000
      -0.000  0.000  0.000  1.000 -0.000
       0.000  0.000  0.000 -0.000  1.000
     SPIN  2
     eigenvalues:
       1.000  1.000  1.000  1.000  1.000
     eigenvectors (columns):
      -0.000 -0.000 -0.000  0.114 -0.993
      -0.267 -0.868 -0.419  0.000  0.000
      -0.618 -0.179  0.765  0.000  0.000
       0.000  0.000  0.000  0.993  0.114
       0.739 -0.463  0.489 -0.000 -0.000
     occupation matrix ns (before diag.):
       1.000 -0.000 -0.000 -0.000  0.000
      -0.000  1.000 -0.000  0.000  0.000
      -0.000 -0.000  1.000  0.000  0.000
      -0.000  0.000  0.000  1.000 -0.000
       0.000  0.000  0.000 -0.000  1.000

     Number of occupied Hubbard levels =    9.9991

     total cpu time spent up to now is        2.0 secs

     total energy              =    -730.31714776 Ry
     estimated scf accuracy    <       4.28683405 Ry

     total magnetization       =    -0.00 Bohr mag/cell
     absolute magnetization    =     3.87 Bohr mag/cell

     iteration #  2     ecut=    60.00 Ry     beta= 0.70
     Davidson diagonalization with overlap
     ethr =  1.00E-02,  avg # of iterations =  3.5

     negative rho (up, down):  8.172E-06 0.000E+00

     total cpu time spent up to now is        2.8 secs

     total energy              =    -728.70107731 Ry
     estimated scf accuracy    <       8.86712281 Ry

     total magnetization       =    -0.00 Bohr mag/cell
     absolute magnetization    =     1.73 Bohr mag/cell

     iteration #  3     ecut=    60.00 Ry     beta= 0.70
     Davidson diagonalization with overlap
     ethr =  1.00E-02,  avg # of iterations =  3.5

     total cpu time spent up to now is        3.8 secs

     total energy              =    -730.34585745 Ry
     estimated scf accuracy    <       5.79908433 Ry

     total magnetization       =    -0.00 Bohr mag/cell
     absolute magnetization    =     1.54 Bohr mag/cell

     iteration #  4     ecut=    60.00 Ry     beta= 0.70
     Davidson diagonalization with overlap
     ethr =  1.00E-02,  avg # of iterations =  1.9

     total cpu time spent up to now is        4.6 secs

     total energy              =    -730.99772049 Ry
     estimated scf accuracy    <       0.04417334 Ry

     total magnetization       =     0.00 Bohr mag/cell
     absolute magnetization    =     0.47 Bohr mag/cell

     iteration #  5     ecut=    60.00 Ry     beta= 0.70
     Davidson diagonalization with overlap
     ethr =  1.38E-04,  avg # of iterations =  2.7

     total cpu time spent up to now is        5.5 secs

     total energy              =    -731.00924294 Ry
     estimated scf accuracy    <       0.00254589 Ry

     total magnetization       =     0.00 Bohr mag/cell
     absolute magnetization    =     0.22 Bohr mag/cell

     iteration #  6     ecut=    60.00 Ry     beta= 0.70
     Davidson diagonalization with overlap
     ethr =  7.96E-06,  avg # of iterations =  3.1

     total cpu time spent up to now is        6.4 secs

     total energy              =    -731.00998457 Ry
     estimated scf accuracy    <       0.00157029 Ry

     total magnetization       =     0.00 Bohr mag/cell
     absolute magnetization    =     0.05 Bohr mag/cell

     iteration #  7     ecut=    60.00 Ry     beta= 0.70
     Davidson diagonalization with overlap
     ethr =  4.91E-06,  avg # of iterations =  1.7

     total cpu time spent up to now is        7.3 secs

     total energy              =    -731.01036789 Ry
     estimated scf accuracy    <       0.00006501 Ry

     total magnetization       =    -0.00 Bohr mag/cell
     absolute magnetization    =     0.02 Bohr mag/cell

     iteration #  8     ecut=    60.00 Ry     beta= 0.70
     Davidson diagonalization with overlap
     ethr =  2.03E-07,  avg # of iterations =  2.9

     total cpu time spent up to now is        8.2 secs

     total energy              =    -731.01044114 Ry
     estimated scf accuracy    <       0.00001071 Ry

     total magnetization       =    -0.00 Bohr mag/cell
     absolute magnetization    =     0.01 Bohr mag/cell

     iteration #  9     ecut=    60.00 Ry     beta= 0.70
     Davidson diagonalization with overlap
     ethr =  3.35E-08,  avg # of iterations =  3.6

     total cpu time spent up to now is        9.1 secs

     total energy              =    -731.01042244 Ry
     estimated scf accuracy    <       0.00000161 Ry

     total magnetization       =     0.00 Bohr mag/cell
     absolute magnetization    =     0.00 Bohr mag/cell

     iteration # 10     ecut=    60.00 Ry     beta= 0.70
     Davidson diagonalization with overlap
     ethr =  5.04E-09,  avg # of iterations =  1.9

     Magnetic moment per site  (integrated on atomic sphere of radius R)
     atom   1 (R=0.357)  charge= 14.7160  magn=  0.0001
     atom   2 (R=0.357)  charge= 14.0629  magn=  0.0001

     total cpu time spent up to now is       10.0 secs

     End of self-consistent calculation

     =================== HUBBARD OCCUPATIONS ===================
     ------------------------ ATOM    2 ------------------------
     Tr[ns(  2)] (up, down, total) =   4.99997  4.99997  9.99993
     Atomic magnetic moment for atom   2 =  -0.00000
     SPIN  1
     eigenvalues:
       1.000  1.000  1.000  1.000  1.000
     eigenvectors (columns):
      -0.000 -0.000  0.000  0.095 -0.995
      -0.289 -0.910  0.297  0.000  0.000
      -0.615 -0.062 -0.786  0.000  0.000
       0.000  0.000 -0.000  0.995  0.095
       0.734 -0.410 -0.542 -0.000 -0.000
     occupation matrix ns (before diag.):
       1.000 -0.000 -0.000 -0.000  0.000
      -0.000  1.000 -0.000  0.000  0.000
      -0.000 -0.000  1.000  0.000  0.000
      -0.000  0.000  0.000  1.000 -0.000
       0.000  0.000  0.000 -0.000  1.000
     SPIN  2
     eigenvalues:
       1.000  1.000  1.000  1.000  1.000
     eigenvectors (columns):
      -0.000 -0.000  0.000 -0.677  0.736
      -0.275 -0.913  0.302 -0.000 -0.000
      -0.605 -0.080 -0.792 -0.000 -0.000
       0.000  0.000 -0.000 -0.736 -0.677
       0.747 -0.401 -0.531  0.000  0.000
     occupation matrix ns (before diag.):
       1.000 -0.000 -0.000 -0.000  0.000
      -0.000  1.000 -0.000  0.000  0.000
      -0.000 -0.000  1.000  0.000  0.000
      -0.000  0.000  0.000  1.000 -0.000
       0.000  0.000  0.000 -0.000  1.000

     Number of occupied Hubbard levels =    9.9999

 ------ SPIN UP ------------


          k = 0.0000 0.0000 0.0000 (  1503 PWs)   bands (ev):

   -70.4099 -36.8908 -36.8908 -36.8794 -36.8794 -36.8794 -36.5038 -36.5038
   -36.5038  -0.5207  13.8440  13.8440  14.8606  14.8606  14.8606  15.7587
    15.7587  15.7587  19.3314  23.7293

          k = 0.0000 0.0000 0.2500 (  1482 PWs)   bands (ev):

   -70.4087 -36.8906 -36.8861 -36.8843 -36.8843 -36.8789 -36.5192 -36.4983
   -36.4983   0.2044  10.1609  13.9864  13.9864  14.1105  15.5006  15.8087
    17.3112  17.3112  21.1447  23.5171

          k = 0.0000 0.0000-0.5000 (  1510 PWs)   bands (ev):

   -70.4080 -36.8908 -36.8896 -36.8896 -36.8816 -36.8788 -36.5348 -36.4933
   -36.4933   1.2600   7.4287  13.5619  13.5619  14.4055  15.8594  16.3568
    18.8129  18.8129  22.0878  23.2397

          k = 0.0000 0.2500 0.2500 (  1492 PWs)   bands (ev):

   -70.4078 -36.8883 -36.8857 -36.8841 -36.8833 -36.8804 -36.5174 -36.5142
   -36.4970   0.8696  10.5139  11.0558  14.1564  14.5954  15.4465  16.0184
    16.1842  17.8349  22.2325  23.5677

          k = 0.0000 0.2500-0.5000 (  1498 PWs)   bands (ev):

   -70.4069 -36.8873 -36.8871 -36.8855 -36.8803 -36.8788 -36.5334 -36.5125
   -36.4958   1.8050   8.2863  11.6145  14.1629  14.4404  15.4723  16.3100
    16.5674  18.1842  20.0181  23.9019

          k = 0.0000-0.5000-0.5000 (  1492 PWs)   bands (ev):

   -70.4058 -36.8852 -36.8839 -36.8816 -36.8816 -36.8749 -36.5321 -36.5321
   -36.4983   2.5283   9.6302   9.6302  13.5794  15.1359  15.1359  15.9056
    16.3501  17.1552  18.2190  26.7446

          k = 0.2500 0.2500 0.2500 (  1499 PWs)   bands (ev):

   -70.4069 -36.8873 -36.8873 -36.8827 -36.8827 -36.8822 -36.5167 -36.5107
   -36.5107   1.5097  11.2287  11.2287  11.4516  15.0480  15.0480  15.8742
    16.9225  16.9225  21.9976  24.2636

          k = 0.2500 0.2500-0.5000 (  1488 PWs)   bands (ev):

   -70.4058 -36.8935 -36.8852 -36.8830 -36.8825 -36.8776 -36.5282 -36.5151
   -36.5040   2.4021   8.9311  11.3876  12.7919  14.9354  15.0339  15.4782
    16.4469  18.0579  20.6083  21.3094

          k = 0.2500-0.5000-0.5000 (  1496 PWs)   bands (ev):

   -70.4049 -36.8907 -36.8901 -36.8901 -36.8799 -36.8750 -36.5232 -36.5232
   -36.5066   3.2219   9.7549   9.7549  12.4407  14.6546  15.7598  15.7598
    16.3671  17.8603  18.2249  22.2021

          k =-0.5000-0.5000-0.5000 (  1472 PWs)   bands (ev):

   -70.4036 -36.8982 -36.8982 -36.8982 -36.8746 -36.8746 -36.5143 -36.5143
   -36.5143   4.2511   9.8704   9.8704   9.8704  16.3841  16.3841  17.9842
    17.9842  17.9842  18.0267  18.0267

 ------ SPIN DOWN ----------


          k = 0.0000 0.0000 0.0000 (  1503 PWs)   bands (ev):

   -70.4093 -36.8909 -36.8909 -36.8794 -36.8794 -36.8794 -36.5032 -36.5032
   -36.5032  -0.5210  13.8463  13.8463  14.8605  14.8605  14.8605  15.7573
    15.7573  15.7573  19.3313  23.7296

          k = 0.0000 0.0000 0.2500 (  1482 PWs)   bands (ev):

   -70.4081 -36.8907 -36.8861 -36.8843 -36.8843 -36.8789 -36.5186 -36.4977
   -36.4977   0.2042  10.1608  13.9857  13.9857  14.1129  15.5032  15.8073
    17.3105  17.3105  21.1447  23.5168

          k = 0.0000 0.0000-0.5000 (  1510 PWs)   bands (ev):

   -70.4073 -36.8909 -36.8896 -36.8896 -36.8817 -36.8788 -36.5342 -36.4927
   -36.4927   1.2598   7.4283  13.5612  13.5612  14.4082  15.8580  16.3601
    18.8123  18.8123  22.0875  23.2387

          k = 0.0000 0.2500 0.2500 (  1492 PWs)   bands (ev):

   -70.4072 -36.8883 -36.8857 -36.8842 -36.8833 -36.8805 -36.5168 -36.5136
   -36.4964   0.8694  10.5137  11.0557  14.1556  14.5976  15.4451  16.0213
    16.1833  17.8343  22.2321  23.5678

          k = 0.0000 0.2500-0.5000 (  1498 PWs)   bands (ev):

   -70.4062 -36.8873 -36.8871 -36.8856 -36.8804 -36.8789 -36.5328 -36.5119
   -36.4952   1.8049   8.2860  11.6141  14.1620  14.4428  15.4710  16.3134
    16.5662  18.1837  20.0184  23.9012

          k = 0.0000-0.5000-0.5000 (  1492 PWs)   bands (ev):

   -70.4052 -36.8852 -36.8840 -36.8816 -36.8816 -36.8750 -36.5315 -36.5315
   -36.4977   2.5282   9.6298   9.6298  13.5808  15.1345  15.1345  15.9043
    16.3536  17.1553  18.2206  26.7443

          k = 0.2500 0.2500 0.2500 (  1499 PWs)   bands (ev):

   -70.4062 -36.8873 -36.8873 -36.8828 -36.8828 -36.8822 -36.5161 -36.5101
   -36.5101   1.5095  11.2284  11.2284  11.4513  15.0494  15.0494  15.8729
    16.9228  16.9228  21.9974  24.2634

          k = 0.2500 0.2500-0.5000 (  1488 PWs)   bands (ev):

   -70.4051 -36.8935 -36.8853 -36.8831 -36.8826 -36.8777 -36.5276 -36.5145
   -36.5034   2.4020   8.9307  11.3870  12.7917  14.9380  15.0332  15.4769
    16.4497  18.0568  20.6079  21.3097

          k = 0.2500-0.5000-0.5000 (  1496 PWs)   bands (ev):

   -70.4042 -36.8908 -36.8901 -36.8901 -36.8800 -36.8751 -36.5226 -36.5226
   -36.5060   3.2218   9.7543   9.7543  12.4402  14.6563  15.7586  15.7586
    16.3706  17.8593  18.2262  22.2015

          k =-0.5000-0.5000-0.5000 (  1472 PWs)   bands (ev):

   -70.4030 -36.8983 -36.8983 -36.8983 -36.8747 -36.8747 -36.5137 -36.5137
   -36.5137   4.2512   9.8698   9.8698   9.8698  16.3876  16.3876  17.9830
    17.9830  17.9830  18.0263  18.0263

     the spin up/dw Fermi energies are    16.2980   16.2992 ev

!    total energy              =    -731.01042839 Ry
     total all-electron energy =     -7405.679934 Ry
     estimated scf accuracy    <       0.00000011 Ry

     The total energy is the sum of the following terms:
     one-electron contribution =    -285.88783899 Ry
     hartree contribution      =     158.74955808 Ry
     xc contribution           =     -56.25577580 Ry
     ewald contribution        =    -323.91874127 Ry
     Hubbard energy            =       0.00001998 Ry
     one-center paw contrib.   =    -223.69765038 Ry

     total magnetization       =    -0.00 Bohr mag/cell
     absolute magnetization    =     0.00 Bohr mag/cell

     convergence has been achieved in  10 iterations

     Writing all to output data dir ./work/calculation.save/

     init_run     :      0.85s CPU      0.88s WALL (       1 calls)
     electrons    :      8.37s CPU      8.97s WALL (       1 calls)

     Called by init_run:
     wfcinit      :      0.18s CPU      0.20s WALL (       1 calls)
     potinit      :      0.30s CPU      0.31s WALL (       1 calls)
     hinit0       :      0.35s CPU      0.35s WALL (       1 calls)

     Called by electrons:
     c_bands      :      4.02s CPU      4.36s WALL (      10 calls)
     sum_band     :      1.12s CPU      1.19s WALL (      10 calls)
     v_of_rho     :      0.15s CPU      0.15s WALL (      11 calls)
     newd         :      0.15s CPU      0.20s WALL (      11 calls)
     PAW_pot      :      3.21s CPU      3.34s WALL (      11 calls)
     mix_rho      :      0.02s CPU      0.02s WALL (      10 calls)

     Called by c_bands:
     init_us_2    :      0.10s CPU      0.11s WALL (     440 calls)
     init_us_2:cp :      0.10s CPU      0.11s WALL (     440 calls)
     cegterg      :      3.83s CPU      4.17s WALL (     200 calls)

     Called by *egterg:
     cdiaghg      :      0.20s CPU      0.21s WALL (     784 calls)
     h_psi        :      3.21s CPU      3.39s WALL (     804 calls)
     s_psi        :      0.09s CPU      0.11s WALL (     824 calls)
     g_psi        :      0.01s CPU      0.01s WALL (     584 calls)

     Called by h_psi:
     h_psi:calbec :      0.12s CPU      0.16s WALL (     804 calls)
     vloc_psi     :      2.89s CPU      2.95s WALL (     804 calls)
     add_vuspsi   :      0.10s CPU      0.14s WALL (     804 calls)
     vhpsi        :      0.09s CPU      0.12s WALL (     804 calls)

     General routines
     calbec       :      0.23s CPU      0.31s WALL (    2028 calls)
     fft          :      0.07s CPU      0.07s WALL (     229 calls)
     ffts         :      0.00s CPU      0.00s WALL (      20 calls)
     fftw         :      3.16s CPU      3.23s WALL (   23378 calls)
     davcio       :      0.00s CPU      0.00s WALL (      20 calls)

     Parallel routines

     Hubbard U routines
     new_ns       :      0.02s CPU      0.03s WALL (      10 calls)
     vhpsi        :      0.09s CPU      0.12s WALL (     804 calls)

     PWSCF        :      9.36s CPU     10.01s WALL


   This run was terminated on:  21:58:47  23Feb2025            

=------------------------------------------------------------------------------=
   JOB DONE.
=------------------------------------------------------------------------------=
