
     Program PWSCF v.7.1 starts on 23Feb2025 at 16:53:14 

     This program is part of the open-source Quantum ESPRESSO suite
     for quantum simulation of materials; please cite
         "P. Giannozzi et al., J. Phys.:Condens. Matter 21 395502 (2009);
         "P. Giannozzi et al., J. Phys.:Condens. Matter 29 465901 (2017);
         "P. Giannozzi et al., J. Chem. Phys. 152 154105 (2020);
          URL http://www.quantum-espresso.org", 
     in publications or presentations arising from this work. More details at
     http://www.quantum-espresso.org/quote

     Parallel version (MPI), running on     1 processors

     MPI processes distributed on     1 nodes
     0 MiB available memory on the printing compute node when the environment starts

     Waiting for input...
     Reading input from standard input

     Current dimensions of program PWSCF are:
     Max number of different atomic species (ntypx) = 10
     Max number of k-points (npk) =  40000
     Max angular momentum in pseudopotentials (lmaxx) =  4
     Message from routine setup:
     using ibrav=0 with symmetry is DISCOURAGED, use correct ibrav instead

     Subspace diagonalization in iterative solution of the eigenvalue problem:
     a serial algorithm will be used


     G-vector sticks info
     --------------------
     sticks:   dense  smooth     PW     G-vecs:    dense   smooth      PW
     Sum         633     633    193                11981    11981    2103

     Using Slab Decomposition



     bravais-lattice index     =            0
     lattice parameter (alat)  =       5.7523  a.u.
     unit-cell volume          =     190.3406 (a.u.)^3
     number of atoms/cell      =            2
     number of atomic types    =            2
     number of electrons       =        22.00
     number of Kohn-Sham states=           15
     kinetic-energy cutoff     =      60.0000  Ry
     charge density cutoff     =     240.0000  Ry
     scf convergence threshold =      1.0E-06
     mixing beta               =       0.7000
     number of iterations used =            8  plain     mixing
     Exchange-correlation= PBE
                           (   1   4   3   4   0   0   0)

     celldm(1)=   5.752330  celldm(2)=   0.000000  celldm(3)=   0.000000
     celldm(4)=   0.000000  celldm(5)=   0.000000  celldm(6)=   0.000000

     crystal axes: (cart. coord. in units of alat)
               a(1) = (   1.000000   0.000000   0.000000 )  
               a(2) = (  -0.000000   1.000000   0.000000 )  
               a(3) = (   0.000000   0.000000   1.000000 )  

     reciprocal axes: (cart. coord. in units 2 pi/alat)
               b(1) = (  1.000000  0.000000 -0.000000 )  
               b(2) = (  0.000000  1.000000  0.000000 )  
               b(3) = (  0.000000 -0.000000  1.000000 )  


     PseudoPot. # 1 for Se read from file:
     ../ONCV/oncv/Se_ONCV_PBE-1.0.upf
     MD5 check sum: e6c7d1efdd045f27363d0780d086d904
     Pseudo is Norm-conserving, Zval =  6.0
     Generated using ONCVPSP code by D. R. Hamann
     Using radial grid of  602 points,  6 beta functions with: 
                l(1) =   0
                l(2) =   0
                l(3) =   1
                l(4) =   1
                l(5) =   2
                l(6) =   2

     PseudoPot. # 2 for Fe read from file:
     ../ONCV/oncv/Fe_ONCV_PBE-1.0.upf
     MD5 check sum: 67bd993eda0c1b822ba89bd899b2056d
     Pseudo is Norm-conserving, Zval = 16.0
     Generated using ONCVPSP code by D. R. Hamann
     Using radial grid of  602 points,  6 beta functions with: 
                l(1) =   0
                l(2) =   0
                l(3) =   1
                l(4) =   1
                l(5) =   2
                l(6) =   2

     atomic species   valence    mass     pseudopotential
        Se             6.00    78.96000     Se( 1.00)
        Fe            16.00    55.84500     Fe( 1.00)

     48 Sym. Ops., with inversion, found



   Cartesian axes

     site n.     atom                  positions (alat units)
         1           Fe  tau(   1) = (   0.0000000   0.0000000   0.0000000  )
         2           Se  tau(   2) = (   0.5000000   0.5000000   0.5000000  )

     number of k points=    10 (tetrahedron method)
                       cart. coord. in units 2pi/alat
        k(    1) = (   0.0000000   0.0000000   0.0000000), wk =   0.0312500
        k(    2) = (   0.0000000   0.0000000   0.2500000), wk =   0.1875000
        k(    3) = (   0.0000000   0.0000000  -0.5000000), wk =   0.0937500
        k(    4) = (   0.0000000   0.2500000   0.2500000), wk =   0.3750000
        k(    5) = (   0.0000000   0.2500000  -0.5000000), wk =   0.3750000
        k(    6) = (   0.0000000  -0.5000000  -0.5000000), wk =   0.0937500
        k(    7) = (   0.2500000   0.2500000   0.2500000), wk =   0.2500000
        k(    8) = (   0.2500000   0.2500000  -0.5000000), wk =   0.3750000
        k(    9) = (   0.2500000  -0.5000000  -0.5000000), wk =   0.1875000
        k(   10) = (  -0.5000000  -0.5000000  -0.5000000), wk =   0.0312500

     Dense  grid:    11981 G-vectors     FFT dimensions: (  30,  30,  30)

     Estimated max dynamical RAM per process >      15.69 MB

     Initial potential from superposition of free atoms

     starting charge      21.9371, renormalised to      22.0000
     Starting wfcs are random

     total cpu time spent up to now is        0.1 secs

     Self-consistent Calculation

     iteration #  1     ecut=    60.00 Ry     beta= 0.70
     Davidson diagonalization with overlap
     ethr =  1.00E-02,  avg # of iterations = 11.0

     total cpu time spent up to now is        0.7 secs

     total energy              =    -255.37401472 Ry
     estimated scf accuracy    <       0.30898286 Ry

     iteration #  2     ecut=    60.00 Ry     beta= 0.70
     Davidson diagonalization with overlap
     ethr =  1.40E-03,  avg # of iterations =  3.1

     total cpu time spent up to now is        0.9 secs

     total energy              =    -255.18991639 Ry
     estimated scf accuracy    <       3.58689143 Ry

     iteration #  3     ecut=    60.00 Ry     beta= 0.70
     Davidson diagonalization with overlap
     ethr =  1.40E-03,  avg # of iterations =  2.9

     total cpu time spent up to now is        1.1 secs

     total energy              =    -255.59533663 Ry
     estimated scf accuracy    <       0.00158177 Ry

     iteration #  4     ecut=    60.00 Ry     beta= 0.70
     Davidson diagonalization with overlap
     c_bands:  2 eigenvalues not converged
     c_bands:  1 eigenvalues not converged
     c_bands:  2 eigenvalues not converged
     c_bands:  1 eigenvalues not converged
     c_bands:  1 eigenvalues not converged
     c_bands:  2 eigenvalues not converged
     ethr =  7.19E-06,  avg # of iterations = 17.6

     total cpu time spent up to now is        1.6 secs

     total energy              =    -255.59952304 Ry
     estimated scf accuracy    <       0.00078178 Ry

     iteration #  5     ecut=    60.00 Ry     beta= 0.70
     Davidson diagonalization with overlap
     c_bands:  2 eigenvalues not converged
     c_bands:  1 eigenvalues not converged
     ethr =  3.55E-06,  avg # of iterations =  8.1

     total cpu time spent up to now is        1.9 secs

     total energy              =    -255.60013405 Ry
     estimated scf accuracy    <       0.00010262 Ry

     iteration #  6     ecut=    60.00 Ry     beta= 0.70
     Davidson diagonalization with overlap
     c_bands:  1 eigenvalues not converged
     ethr =  4.66E-07,  avg # of iterations = 10.3

     total cpu time spent up to now is        2.2 secs

     total energy              =    -255.60018633 Ry
     estimated scf accuracy    <       0.00000645 Ry

     iteration #  7     ecut=    60.00 Ry     beta= 0.70
     Davidson diagonalization with overlap
     c_bands:  4 eigenvalues not converged
     c_bands:  1 eigenvalues not converged
     ethr =  2.93E-08,  avg # of iterations = 12.7

     total cpu time spent up to now is        2.6 secs

     End of self-consistent calculation

          k = 0.0000 0.0000 0.0000 (  1503 PWs)   bands (ev):

   -71.7554 -37.8171 -37.8171 -37.8171  -1.7813  12.5699  12.5699  13.6030
    13.6030  13.6030  14.4591  14.4591  14.4591  18.0738  18.2071

          k = 0.0000 0.0000 0.2500 (  1482 PWs)   bands (ev):

   -71.7544 -37.8331 -37.8158 -37.8158  -1.0606   8.8975  12.7148  12.7148
    12.8439  14.2309  14.5151  16.0235  16.0236  18.3473  18.4604

          k = 0.0000 0.0000-0.5000 (  1510 PWs)   bands (ev):

   -71.7534 -37.8490 -37.8144 -37.8144  -0.0141   6.1746  12.2880  12.2880
    13.1439  14.5677  15.0778  17.5200  17.5200  18.1125  18.1329

          k = 0.0000 0.2500 0.2500 (  1492 PWs)   bands (ev):

   -71.7534 -37.8317 -37.8312 -37.8144  -0.3983   9.2520   9.7857  12.8822
    13.3272  14.1498  14.7438  14.8930  16.5509  18.3122  18.3173

          k = 0.0000 0.2500-0.5000 (  1498 PWs)   bands (ev):

   -71.7524 -37.8472 -37.8299 -37.8131   0.5313   7.0266  10.3441  12.8829
    13.1751  14.1773  15.0308  15.2711  16.9018  18.2530  18.3080

          k = 0.0000-0.5000-0.5000 (  1492 PWs)   bands (ev):

   -71.7514 -37.8454 -37.8454 -37.8118   1.2536   8.3631   8.3631  12.3122
    13.8392  13.8393  14.6101  15.0679  15.8930  16.9497  18.1637

          k = 0.2500 0.2500 0.2500 (  1499 PWs)   bands (ev):

   -71.7524 -37.8304 -37.8297 -37.8297   0.2402   9.9567   9.9567  10.1904
    13.7687  13.7687  14.5801  15.6328  15.6328  18.1944  18.2035

          k = 0.2500 0.2500-0.5000 (  1488 PWs)   bands (ev):

   -71.7514 -37.8454 -37.8286 -37.8282   1.1291   7.6673  10.1139  11.5234
    13.6660  13.7448  14.1833  15.1661  16.7614  18.2688  18.4159

          k = 0.2500-0.5000-0.5000 (  1496 PWs)   bands (ev):

   -71.7504 -37.8436 -37.8436 -37.8269   1.9486   8.4861   8.4861  11.1671
    13.3823  14.4654  14.4654  15.0837  16.5681  16.9537  18.0428

          k =-0.5000-0.5000-0.5000 (  1472 PWs)   bands (ev):

   -71.7494 -37.8419 -37.8419 -37.8419   2.9783   8.6007   8.6007   8.6007
    15.1062  15.1062  16.6894  16.6894  16.6897  16.7470  16.7474

     the Fermi energy is    15.0120 ev

!    total energy              =    -255.60018533 Ry
     estimated scf accuracy    <       0.00000025 Ry

     The total energy is the sum of the following terms:
     one-electron contribution =    -132.73573954 Ry
     hartree contribution      =      77.20926703 Ry
     xc contribution           =     -29.27986878 Ry
     ewald contribution        =    -170.79384404 Ry

     convergence has been achieved in   7 iterations

     Writing all to output data dir ./work/calculation.save/

     init_run     :      0.10s CPU      0.10s WALL (       1 calls)
     electrons    :      2.35s CPU      2.46s WALL (       1 calls)

     Called by init_run:
     wfcinit      :      0.06s CPU      0.06s WALL (       1 calls)
     potinit      :      0.01s CPU      0.01s WALL (       1 calls)
     hinit0       :      0.03s CPU      0.03s WALL (       1 calls)

     Called by electrons:
     c_bands      :      2.12s CPU      2.22s WALL (       7 calls)
     sum_band     :      0.20s CPU      0.20s WALL (       7 calls)
     v_of_rho     :      0.04s CPU      0.04s WALL (       8 calls)
     mix_rho      :      0.00s CPU      0.00s WALL (       7 calls)

     Called by c_bands:
     init_us_2    :      0.03s CPU      0.03s WALL (     150 calls)
     init_us_2:cp :      0.03s CPU      0.03s WALL (     150 calls)
     cegterg      :      2.05s CPU      2.15s WALL (      70 calls)

     Called by *egterg:
     cdiaghg      :      0.11s CPU      0.11s WALL (     727 calls)
     h_psi        :      1.67s CPU      1.72s WALL (     737 calls)
     g_psi        :      0.01s CPU      0.01s WALL (     657 calls)

     Called by h_psi:
     h_psi:calbec :      0.08s CPU      0.10s WALL (     737 calls)
     vloc_psi     :      1.52s CPU      1.53s WALL (     737 calls)
     add_vuspsi   :      0.07s CPU      0.08s WALL (     737 calls)

     General routines
     calbec       :      0.08s CPU      0.10s WALL (     737 calls)
     fft          :      0.02s CPU      0.02s WALL (      79 calls)
     ffts         :      0.00s CPU      0.00s WALL (       7 calls)
     fftw         :      1.53s CPU      1.54s WALL (   11410 calls)

     Parallel routines

     PWSCF        :      2.47s CPU      2.58s WALL


   This run was terminated on:  16:53:17  23Feb2025            

=------------------------------------------------------------------------------=
   JOB DONE.
=------------------------------------------------------------------------------=
