
     Program PWSCF v.7.1 starts on  2Feb2025 at 12:10: 6 

     This program is part of the open-source Quantum ESPRESSO suite
     for quantum simulation of materials; please cite
         "P. Giannozzi et al., J. Phys.:Condens. Matter 21 395502 (2009);
         "P. Giannozzi et al., J. Phys.:Condens. Matter 29 465901 (2017);
         "P. Giannozzi et al., J. Chem. Phys. 152 154105 (2020);
          URL http://www.quantum-espresso.org", 
     in publications or presentations arising from this work. More details at
     http://www.quantum-espresso.org/quote

     Parallel version (MPI), running on     1 processors

     MPI processes distributed on     1 nodes
     0 MiB available memory on the printing compute node when the environment starts

     Waiting for input...
     Reading input from standard input

     Current dimensions of program PWSCF are:
     Max number of different atomic species (ntypx) = 10
     Max number of k-points (npk) =  40000
     Max angular momentum in pseudopotentials (lmaxx) =  4

     Atomic positions and unit cell read from directory:
     ./work/calculation.save/

     file Fe.pbe-spn-kjpaw_psl.1.0.0.UPF: wavefunction(s)  3P 3D renormalized
     file Se.pbe-dn-kjpaw_psl.1.0.0.UPF: wavefunction(s)  4S 4P 3D renormalized

     Subspace diagonalization in iterative solution of the eigenvalue problem:
     a serial algorithm will be used


     G-vector sticks info
     --------------------
     sticks:   dense  smooth     PW     G-vecs:    dense   smooth      PW
     Sum         633     633    221                11981    11981    2517

     Using Slab Decomposition



     bravais-lattice index     =            0
     lattice parameter (alat)  =       5.7523  a.u.
     unit-cell volume          =     190.3406 (a.u.)^3
     number of atoms/cell      =            2
     number of atomic types    =            2
     number of electrons       =        32.00
     number of Kohn-Sham states=           16
     kinetic-energy cutoff     =      60.0000  Ry
     charge density cutoff     =     240.0000  Ry
     Exchange-correlation= SLA  PW   PBX  PBC
                           (   1   4   3   4   0   0   0)

     celldm(1)=   5.752330  celldm(2)=   0.000000  celldm(3)=   0.000000
     celldm(4)=   0.000000  celldm(5)=   0.000000  celldm(6)=   0.000000

     crystal axes: (cart. coord. in units of alat)
               a(1) = (   1.000000   0.000000   0.000000 )  
               a(2) = (   0.000000   1.000000   0.000000 )  
               a(3) = (   0.000000   0.000000   1.000000 )  

     reciprocal axes: (cart. coord. in units 2 pi/alat)
               b(1) = (  1.000000  0.000000  0.000000 )  
               b(2) = (  0.000000  1.000000  0.000000 )  
               b(3) = (  0.000000  0.000000  1.000000 )  


     PseudoPot. # 1 for Fe read from file:
     ./pseudo/Fe.pbe-spn-kjpaw_psl.1.0.0.UPF
     MD5 check sum: fc81f059e5c5069939230b1155715ae8
     Pseudo is Projector augmented-wave + core cor, Zval = 16.0
     Generated using &quot;atomic&quot; code by A. Dal Corso  v.6.3
     Shape of augmentation charge: PSQ
     Using radial grid of 1191 points,  6 beta functions with: 
                l(1) =   0
                l(2) =   0
                l(3) =   1
                l(4) =   1
                l(5) =   2
                l(6) =   2
     Q(r) pseudized with 0 coefficients 


     PseudoPot. # 2 for Se read from file:
     ./pseudo/Se.pbe-dn-kjpaw_psl.1.0.0.UPF
     MD5 check sum: ac240dd2bae32a30e0bf3a38df9c8785
     Pseudo is Projector augmented-wave + core cor, Zval = 16.0
     Generated using &quot;atomic&quot; code by A. Dal Corso  v.6.3
     Shape of augmentation charge: PSQ
     Using radial grid of 1211 points,  6 beta functions with: 
                l(1) =   0
                l(2) =   0
                l(3) =   1
                l(4) =   1
                l(5) =   2
                l(6) =   2
     Q(r) pseudized with 0 coefficients 


     atomic species   valence    mass     pseudopotential
        Fe            16.00    55.84500     Fe( 1.00)
        Se            16.00    78.96000     Se( 1.00)

     No symmetry found



   Cartesian axes

     site n.     atom                  positions (alat units)
         1           Fe  tau(   1) = (   0.0000000   0.0000000   0.0000000  )
         2           Se  tau(   2) = (   0.5000000   0.5000000   0.5000000  )

     number of k points=    64
                       cart. coord. in units 2pi/alat
        k(    1) = (   0.0000000   0.0000000   0.0000000), wk =   0.0312500
        k(    2) = (   0.0000000   0.0000000   0.2500000), wk =   0.0312500
        k(    3) = (   0.0000000   0.0000000   0.5000000), wk =   0.0312500
        k(    4) = (   0.0000000   0.0000000   0.7500000), wk =   0.0312500
        k(    5) = (   0.0000000   0.2500000   0.0000000), wk =   0.0312500
        k(    6) = (   0.0000000   0.2500000   0.2500000), wk =   0.0312500
        k(    7) = (   0.0000000   0.2500000   0.5000000), wk =   0.0312500
        k(    8) = (   0.0000000   0.2500000   0.7500000), wk =   0.0312500
        k(    9) = (   0.0000000   0.5000000   0.0000000), wk =   0.0312500
        k(   10) = (   0.0000000   0.5000000   0.2500000), wk =   0.0312500
        k(   11) = (   0.0000000   0.5000000   0.5000000), wk =   0.0312500
        k(   12) = (   0.0000000   0.5000000   0.7500000), wk =   0.0312500
        k(   13) = (   0.0000000   0.7500000   0.0000000), wk =   0.0312500
        k(   14) = (   0.0000000   0.7500000   0.2500000), wk =   0.0312500
        k(   15) = (   0.0000000   0.7500000   0.5000000), wk =   0.0312500
        k(   16) = (   0.0000000   0.7500000   0.7500000), wk =   0.0312500
        k(   17) = (   0.2500000   0.0000000   0.0000000), wk =   0.0312500
        k(   18) = (   0.2500000   0.0000000   0.2500000), wk =   0.0312500
        k(   19) = (   0.2500000   0.0000000   0.5000000), wk =   0.0312500
        k(   20) = (   0.2500000   0.0000000   0.7500000), wk =   0.0312500
        k(   21) = (   0.2500000   0.2500000   0.0000000), wk =   0.0312500
        k(   22) = (   0.2500000   0.2500000   0.2500000), wk =   0.0312500
        k(   23) = (   0.2500000   0.2500000   0.5000000), wk =   0.0312500
        k(   24) = (   0.2500000   0.2500000   0.7500000), wk =   0.0312500
        k(   25) = (   0.2500000   0.5000000   0.0000000), wk =   0.0312500
        k(   26) = (   0.2500000   0.5000000   0.2500000), wk =   0.0312500
        k(   27) = (   0.2500000   0.5000000   0.5000000), wk =   0.0312500
        k(   28) = (   0.2500000   0.5000000   0.7500000), wk =   0.0312500
        k(   29) = (   0.2500000   0.7500000   0.0000000), wk =   0.0312500
        k(   30) = (   0.2500000   0.7500000   0.2500000), wk =   0.0312500
        k(   31) = (   0.2500000   0.7500000   0.5000000), wk =   0.0312500
        k(   32) = (   0.2500000   0.7500000   0.7500000), wk =   0.0312500
        k(   33) = (   0.5000000   0.0000000   0.0000000), wk =   0.0312500
        k(   34) = (   0.5000000   0.0000000   0.2500000), wk =   0.0312500
        k(   35) = (   0.5000000   0.0000000   0.5000000), wk =   0.0312500
        k(   36) = (   0.5000000   0.0000000   0.7500000), wk =   0.0312500
        k(   37) = (   0.5000000   0.2500000   0.0000000), wk =   0.0312500
        k(   38) = (   0.5000000   0.2500000   0.2500000), wk =   0.0312500
        k(   39) = (   0.5000000   0.2500000   0.5000000), wk =   0.0312500
        k(   40) = (   0.5000000   0.2500000   0.7500000), wk =   0.0312500
        k(   41) = (   0.5000000   0.5000000   0.0000000), wk =   0.0312500
        k(   42) = (   0.5000000   0.5000000   0.2500000), wk =   0.0312500
        k(   43) = (   0.5000000   0.5000000   0.5000000), wk =   0.0312500
        k(   44) = (   0.5000000   0.5000000   0.7500000), wk =   0.0312500
        k(   45) = (   0.5000000   0.7500000   0.0000000), wk =   0.0312500
        k(   46) = (   0.5000000   0.7500000   0.2500000), wk =   0.0312500
        k(   47) = (   0.5000000   0.7500000   0.5000000), wk =   0.0312500
        k(   48) = (   0.5000000   0.7500000   0.7500000), wk =   0.0312500
        k(   49) = (   0.7500000   0.0000000   0.0000000), wk =   0.0312500
        k(   50) = (   0.7500000   0.0000000   0.2500000), wk =   0.0312500
        k(   51) = (   0.7500000   0.0000000   0.5000000), wk =   0.0312500
        k(   52) = (   0.7500000   0.0000000   0.7500000), wk =   0.0312500
        k(   53) = (   0.7500000   0.2500000   0.0000000), wk =   0.0312500
        k(   54) = (   0.7500000   0.2500000   0.2500000), wk =   0.0312500
        k(   55) = (   0.7500000   0.2500000   0.5000000), wk =   0.0312500
        k(   56) = (   0.7500000   0.2500000   0.7500000), wk =   0.0312500
        k(   57) = (   0.7500000   0.5000000   0.0000000), wk =   0.0312500
        k(   58) = (   0.7500000   0.5000000   0.2500000), wk =   0.0312500
        k(   59) = (   0.7500000   0.5000000   0.5000000), wk =   0.0312500
        k(   60) = (   0.7500000   0.5000000   0.7500000), wk =   0.0312500
        k(   61) = (   0.7500000   0.7500000   0.0000000), wk =   0.0312500
        k(   62) = (   0.7500000   0.7500000   0.2500000), wk =   0.0312500
        k(   63) = (   0.7500000   0.7500000   0.5000000), wk =   0.0312500
        k(   64) = (   0.7500000   0.7500000   0.7500000), wk =   0.0312500

     Dense  grid:    11981 G-vectors     FFT dimensions: (  30,  30,  30)

     Estimated max dynamical RAM per process >      41.75 MB

     Check: negative core charge=   -0.000008

     The potential is recalculated from file :
     ./work/calculation.save/charge-density

     Starting wfcs are   19 randomized atomic wfcs
     Checking if some PAW data can be deallocated... 

     Band Structure Calculation
     Davidson diagonalization with overlap

     ethr =  3.13E-11,  avg # of iterations = 49.8

     total cpu time spent up to now is       13.6 secs

     End of band structure calculation

          k = 0.0000 0.0000 0.0000 (  1503 PWs)   bands (ev):

   -70.4077 -36.5017 -36.5017 -36.5017 -32.8917 -32.8917 -32.8803 -32.8803
   -32.8803  -0.5208  13.8463  13.8463  14.8606  14.8606  14.8606  15.7595

          k = 0.0000 0.0000 0.2500 (  1482 PWs)   bands (ev):

   -70.4065 -36.5177 -36.5004 -36.5004 -32.8915 -32.8863 -32.8809 -32.8809
   -32.8798   0.2043  10.1611  13.9867  13.9867  14.1128  15.5030  15.8094

          k = 0.0000 0.0000 0.5000 (  1510 PWs)   bands (ev):

   -70.4058 -36.5340 -36.4995 -36.4995 -32.8916 -32.8821 -32.8821 -32.8812
   -32.8797   1.2600   7.4286  13.5623  13.5623  14.4080  15.8601  16.3599

          k = 0.0000 0.0000 0.7500 (  1482 PWs)   bands (ev):

   -70.4065 -36.5177 -36.5004 -36.5004 -32.8915 -32.8863 -32.8809 -32.8809
   -32.8798   0.2043  10.1611  13.9867  13.9867  14.1128  15.5030  15.8094

          k = 0.0000 0.2500 0.0000 (  1482 PWs)   bands (ev):

   -70.4065 -36.5177 -36.5004 -36.5004 -32.8915 -32.8863 -32.8809 -32.8809
   -32.8798   0.2043  10.1611  13.9867  13.9867  14.1128  15.5030  15.8094

          k = 0.0000 0.2500 0.2500 (  1492 PWs)   bands (ev):

   -70.4056 -36.5167 -36.5158 -36.4992 -32.8888 -32.8837 -32.8823 -32.8814
   -32.8808   0.8696  10.5141  11.0560  14.1567  14.5977  15.4473  16.0211

          k = 0.0000 0.2500 0.5000 (  1498 PWs)   bands (ev):

   -70.4047 -36.5319 -36.5148 -36.4979 -32.8881 -32.8838 -32.8823 -32.8812
   -32.8791   1.8050   8.2863  11.6146  14.1633  14.4427  15.4731  16.3131

          k = 0.0000 0.2500 0.7500 (  1492 PWs)   bands (ev):

   -70.4056 -36.5167 -36.5158 -36.4992 -32.8888 -32.8837 -32.8823 -32.8814
   -32.8808   0.8696  10.5141  11.0560  14.1567  14.5977  15.4473  16.0211

          k = 0.0000 0.5000 0.0000 (  1510 PWs)   bands (ev):

   -70.4058 -36.5340 -36.4995 -36.4995 -32.8916 -32.8821 -32.8821 -32.8812
   -32.8797   1.2600   7.4286  13.5623  13.5623  14.4080  15.8601  16.3599

          k = 0.0000 0.5000 0.2500 (  1498 PWs)   bands (ev):

   -70.4047 -36.5319 -36.5148 -36.4979 -32.8881 -32.8838 -32.8823 -32.8812
   -32.8791   1.8050   8.2863  11.6146  14.1633  14.4427  15.4731  16.3131

          k = 0.0000 0.5000 0.5000 (  1492 PWs)   bands (ev):

   -70.4036 -36.5300 -36.5300 -36.4962 -32.8860 -32.8856 -32.8826 -32.8826
   -32.8757   2.5283   9.6301   9.6301  13.5812  15.1366  15.1366  15.9063

          k = 0.0000 0.5000 0.7500 (  1498 PWs)   bands (ev):

   -70.4047 -36.5319 -36.5148 -36.4979 -32.8881 -32.8838 -32.8823 -32.8812
   -32.8791   1.8050   8.2863  11.6146  14.1633  14.4427  15.4731  16.3131

          k = 0.0000 0.7500 0.0000 (  1482 PWs)   bands (ev):

   -70.4065 -36.5177 -36.5004 -36.5004 -32.8915 -32.8863 -32.8809 -32.8809
   -32.8798   0.2043  10.1611  13.9867  13.9867  14.1128  15.5030  15.8094

          k = 0.0000 0.7500 0.2500 (  1492 PWs)   bands (ev):

   -70.4056 -36.5167 -36.5158 -36.4992 -32.8888 -32.8837 -32.8823 -32.8814
   -32.8808   0.8696  10.5141  11.0560  14.1567  14.5977  15.4473  16.0211

          k = 0.0000 0.7500 0.5000 (  1498 PWs)   bands (ev):

   -70.4047 -36.5319 -36.5148 -36.4979 -32.8881 -32.8838 -32.8823 -32.8812
   -32.8791   1.8050   8.2863  11.6146  14.1633  14.4427  15.4731  16.3131

          k = 0.0000 0.7500 0.7500 (  1492 PWs)   bands (ev):

   -70.4056 -36.5167 -36.5158 -36.4992 -32.8888 -32.8837 -32.8823 -32.8814
   -32.8808   0.8696  10.5141  11.0560  14.1567  14.5977  15.4473  16.0211

          k = 0.2500 0.0000 0.0000 (  1482 PWs)   bands (ev):

   -70.4065 -36.5177 -36.5004 -36.5004 -32.8915 -32.8863 -32.8809 -32.8809
   -32.8798   0.2043  10.1611  13.9867  13.9867  14.1128  15.5030  15.8094

          k = 0.2500 0.0000 0.2500 (  1492 PWs)   bands (ev):

   -70.4056 -36.5167 -36.5158 -36.4992 -32.8888 -32.8837 -32.8823 -32.8814
   -32.8808   0.8696  10.5141  11.0560  14.1567  14.5977  15.4473  16.0211

          k = 0.2500 0.0000 0.5000 (  1498 PWs)   bands (ev):

   -70.4047 -36.5319 -36.5148 -36.4979 -32.8881 -32.8838 -32.8823 -32.8812
   -32.8791   1.8050   8.2863  11.6146  14.1633  14.4427  15.4731  16.3131

          k = 0.2500 0.0000 0.7500 (  1492 PWs)   bands (ev):

   -70.4056 -36.5167 -36.5158 -36.4992 -32.8888 -32.8837 -32.8823 -32.8814
   -32.8808   0.8696  10.5141  11.0560  14.1567  14.5977  15.4473  16.0211

          k = 0.2500 0.2500 0.0000 (  1492 PWs)   bands (ev):

   -70.4056 -36.5167 -36.5158 -36.4992 -32.8888 -32.8837 -32.8823 -32.8814
   -32.8808   0.8696  10.5141  11.0560  14.1567  14.5977  15.4473  16.0211

          k = 0.2500 0.2500 0.2500 (  1499 PWs)   bands (ev):

   -70.4047 -36.5152 -36.5147 -36.5147 -32.8837 -32.8837 -32.8827 -32.8821
   -32.8821   1.5096  11.2289  11.2289  11.4516  15.0500  15.0500  15.8749

          k = 0.2500 0.2500 0.5000 (  1488 PWs)   bands (ev):

   -70.4036 -36.5304 -36.5134 -36.5132 -32.8841 -32.8834 -32.8828 -32.8821
   -32.8783   2.4021   8.9310  11.3877  12.7919  14.9379  15.0348  15.4789

          k = 0.2500 0.2500 0.7500 (  1499 PWs)   bands (ev):

   -70.4047 -36.5152 -36.5147 -36.5147 -32.8837 -32.8837 -32.8827 -32.8821
   -32.8821   1.5096  11.2289  11.2289  11.4516  15.0500  15.0500  15.8749

          k = 0.2500 0.5000 0.0000 (  1498 PWs)   bands (ev):

   -70.4047 -36.5319 -36.5148 -36.4979 -32.8881 -32.8838 -32.8823 -32.8812
   -32.8791   1.8050   8.2863  11.6146  14.1633  14.4427  15.4731  16.3131

          k = 0.2500 0.5000 0.2500 (  1488 PWs)   bands (ev):

   -70.4036 -36.5304 -36.5134 -36.5132 -32.8841 -32.8834 -32.8828 -32.8821
   -32.8783   2.4021   8.9310  11.3877  12.7919  14.9378  15.0348  15.4789

          k = 0.2500 0.5000 0.5000 (  1496 PWs)   bands (ev):

   -70.4026 -36.5289 -36.5289 -36.5120 -32.8847 -32.8832 -32.8832 -32.8808
   -32.8758   3.2219   9.7547   9.7547  12.4408  14.6565  15.7604  15.7604

          k = 0.2500 0.5000 0.7500 (  1488 PWs)   bands (ev):

   -70.4036 -36.5304 -36.5134 -36.5132 -32.8841 -32.8834 -32.8828 -32.8821
   -32.8783   2.4021   8.9310  11.3877  12.7919  14.9378  15.0348  15.4789

          k = 0.2500 0.7500 0.0000 (  1492 PWs)   bands (ev):

   -70.4056 -36.5167 -36.5158 -36.4992 -32.8888 -32.8837 -32.8823 -32.8814
   -32.8808   0.8696  10.5141  11.0560  14.1567  14.5977  15.4473  16.0211

          k = 0.2500 0.7500 0.2500 (  1499 PWs)   bands (ev):

   -70.4047 -36.5152 -36.5147 -36.5147 -32.8837 -32.8837 -32.8827 -32.8821
   -32.8821   1.5096  11.2289  11.2289  11.4516  15.0500  15.0500  15.8749

          k = 0.2500 0.7500 0.5000 (  1488 PWs)   bands (ev):

   -70.4036 -36.5304 -36.5134 -36.5132 -32.8841 -32.8834 -32.8828 -32.8821
   -32.8783   2.4021   8.9310  11.3877  12.7919  14.9379  15.0348  15.4789

          k = 0.2500 0.7500 0.7500 (  1499 PWs)   bands (ev):

   -70.4047 -36.5152 -36.5147 -36.5147 -32.8837 -32.8837 -32.8827 -32.8821
   -32.8821   1.5096  11.2289  11.2289  11.4516  15.0500  15.0500  15.8749

          k = 0.5000 0.0000 0.0000 (  1510 PWs)   bands (ev):

   -70.4058 -36.5340 -36.4995 -36.4995 -32.8916 -32.8821 -32.8821 -32.8812
   -32.8797   1.2600   7.4286  13.5623  13.5623  14.4080  15.8601  16.3599

          k = 0.5000 0.0000 0.2500 (  1498 PWs)   bands (ev):

   -70.4047 -36.5319 -36.5148 -36.4979 -32.8881 -32.8838 -32.8823 -32.8812
   -32.8791   1.8050   8.2863  11.6146  14.1633  14.4427  15.4731  16.3131

          k = 0.5000 0.0000 0.5000 (  1492 PWs)   bands (ev):

   -70.4036 -36.5300 -36.5300 -36.4962 -32.8860 -32.8856 -32.8826 -32.8826
   -32.8757   2.5283   9.6301   9.6301  13.5812  15.1366  15.1366  15.9063

          k = 0.5000 0.0000 0.7500 (  1498 PWs)   bands (ev):

   -70.4047 -36.5319 -36.5148 -36.4979 -32.8881 -32.8838 -32.8823 -32.8812
   -32.8791   1.8050   8.2863  11.6146  14.1633  14.4427  15.4731  16.3131

          k = 0.5000 0.2500 0.0000 (  1498 PWs)   bands (ev):

   -70.4047 -36.5319 -36.5148 -36.4979 -32.8881 -32.8838 -32.8823 -32.8812
   -32.8791   1.8050   8.2863  11.6146  14.1633  14.4427  15.4731  16.3131

          k = 0.5000 0.2500 0.2500 (  1488 PWs)   bands (ev):

   -70.4036 -36.5304 -36.5134 -36.5132 -32.8841 -32.8834 -32.8828 -32.8821
   -32.8783   2.4021   8.9310  11.3877  12.7919  14.9378  15.0348  15.4789

          k = 0.5000 0.2500 0.5000 (  1496 PWs)   bands (ev):

   -70.4026 -36.5289 -36.5289 -36.5120 -32.8847 -32.8832 -32.8832 -32.8808
   -32.8758   3.2219   9.7547   9.7547  12.4408  14.6565  15.7604  15.7604

          k = 0.5000 0.2500 0.7500 (  1488 PWs)   bands (ev):

   -70.4036 -36.5304 -36.5134 -36.5132 -32.8841 -32.8834 -32.8828 -32.8821
   -32.8783   2.4021   8.9310  11.3877  12.7919  14.9378  15.0348  15.4789

          k = 0.5000 0.5000 0.0000 (  1492 PWs)   bands (ev):

   -70.4036 -36.5300 -36.5300 -36.4962 -32.8860 -32.8856 -32.8826 -32.8826
   -32.8757   2.5283   9.6301   9.6301  13.5812  15.1366  15.1366  15.9063

          k = 0.5000 0.5000 0.2500 (  1496 PWs)   bands (ev):

   -70.4026 -36.5289 -36.5289 -36.5120 -32.8847 -32.8832 -32.8832 -32.8808
   -32.8758   3.2219   9.7547   9.7547  12.4408  14.6565  15.7604  15.7604

          k = 0.5000 0.5000 0.5000 (  1472 PWs)   bands (ev):

   -70.4014 -36.5276 -36.5276 -36.5276 -32.8837 -32.8837 -32.8837 -32.8754
   -32.8754   4.2511   9.8704   9.8704   9.8704  16.3874  16.3874  17.9849

          k = 0.5000 0.5000 0.7500 (  1496 PWs)   bands (ev):

   -70.4026 -36.5289 -36.5289 -36.5120 -32.8847 -32.8832 -32.8832 -32.8808
   -32.8758   3.2219   9.7547   9.7547  12.4408  14.6565  15.7604  15.7604

          k = 0.5000 0.7500 0.0000 (  1498 PWs)   bands (ev):

   -70.4047 -36.5319 -36.5148 -36.4979 -32.8881 -32.8838 -32.8823 -32.8812
   -32.8791   1.8050   8.2863  11.6146  14.1633  14.4427  15.4731  16.3131

          k = 0.5000 0.7500 0.2500 (  1488 PWs)   bands (ev):

   -70.4036 -36.5304 -36.5134 -36.5132 -32.8841 -32.8834 -32.8828 -32.8821
   -32.8783   2.4021   8.9310  11.3877  12.7919  14.9378  15.0348  15.4789

          k = 0.5000 0.7500 0.5000 (  1496 PWs)   bands (ev):

   -70.4026 -36.5289 -36.5289 -36.5120 -32.8847 -32.8832 -32.8832 -32.8808
   -32.8758   3.2219   9.7547   9.7547  12.4408  14.6565  15.7604  15.7604

          k = 0.5000 0.7500 0.7500 (  1488 PWs)   bands (ev):

   -70.4036 -36.5304 -36.5134 -36.5132 -32.8841 -32.8834 -32.8828 -32.8821
   -32.8783   2.4021   8.9310  11.3877  12.7919  14.9378  15.0348  15.4789

          k = 0.7500 0.0000 0.0000 (  1482 PWs)   bands (ev):

   -70.4065 -36.5177 -36.5004 -36.5004 -32.8915 -32.8863 -32.8809 -32.8809
   -32.8798   0.2043  10.1611  13.9867  13.9867  14.1128  15.5030  15.8094

          k = 0.7500 0.0000 0.2500 (  1492 PWs)   bands (ev):

   -70.4056 -36.5167 -36.5158 -36.4992 -32.8888 -32.8837 -32.8823 -32.8814
   -32.8808   0.8696  10.5141  11.0560  14.1567  14.5977  15.4473  16.0211

          k = 0.7500 0.0000 0.5000 (  1498 PWs)   bands (ev):

   -70.4047 -36.5319 -36.5148 -36.4979 -32.8881 -32.8838 -32.8823 -32.8812
   -32.8791   1.8050   8.2863  11.6146  14.1633  14.4427  15.4731  16.3131

          k = 0.7500 0.0000 0.7500 (  1492 PWs)   bands (ev):

   -70.4056 -36.5167 -36.5158 -36.4992 -32.8888 -32.8837 -32.8823 -32.8814
   -32.8808   0.8696  10.5141  11.0560  14.1567  14.5977  15.4473  16.0211

          k = 0.7500 0.2500 0.0000 (  1492 PWs)   bands (ev):

   -70.4056 -36.5167 -36.5158 -36.4992 -32.8888 -32.8837 -32.8823 -32.8814
   -32.8808   0.8696  10.5141  11.0560  14.1567  14.5977  15.4473  16.0211

          k = 0.7500 0.2500 0.2500 (  1499 PWs)   bands (ev):

   -70.4047 -36.5152 -36.5147 -36.5147 -32.8837 -32.8837 -32.8827 -32.8821
   -32.8821   1.5096  11.2289  11.2289  11.4516  15.0500  15.0500  15.8749

          k = 0.7500 0.2500 0.5000 (  1488 PWs)   bands (ev):

   -70.4036 -36.5304 -36.5134 -36.5132 -32.8841 -32.8834 -32.8828 -32.8821
   -32.8783   2.4021   8.9310  11.3877  12.7919  14.9379  15.0348  15.4789

          k = 0.7500 0.2500 0.7500 (  1499 PWs)   bands (ev):

   -70.4047 -36.5152 -36.5147 -36.5147 -32.8837 -32.8837 -32.8827 -32.8821
   -32.8821   1.5096  11.2289  11.2289  11.4516  15.0500  15.0500  15.8749

          k = 0.7500 0.5000 0.0000 (  1498 PWs)   bands (ev):

   -70.4047 -36.5319 -36.5148 -36.4979 -32.8881 -32.8838 -32.8823 -32.8812
   -32.8791   1.8050   8.2863  11.6146  14.1633  14.4427  15.4731  16.3131

          k = 0.7500 0.5000 0.2500 (  1488 PWs)   bands (ev):

   -70.4036 -36.5304 -36.5134 -36.5132 -32.8841 -32.8834 -32.8828 -32.8821
   -32.8783   2.4021   8.9310  11.3877  12.7919  14.9378  15.0348  15.4789

          k = 0.7500 0.5000 0.5000 (  1496 PWs)   bands (ev):

   -70.4026 -36.5289 -36.5289 -36.5120 -32.8847 -32.8832 -32.8832 -32.8808
   -32.8758   3.2219   9.7547   9.7547  12.4408  14.6565  15.7604  15.7604

          k = 0.7500 0.5000 0.7500 (  1488 PWs)   bands (ev):

   -70.4036 -36.5304 -36.5134 -36.5132 -32.8841 -32.8834 -32.8828 -32.8821
   -32.8783   2.4021   8.9310  11.3877  12.7919  14.9378  15.0348  15.4789

          k = 0.7500 0.7500 0.0000 (  1492 PWs)   bands (ev):

   -70.4056 -36.5167 -36.5158 -36.4992 -32.8888 -32.8837 -32.8823 -32.8814
   -32.8808   0.8696  10.5141  11.0560  14.1567  14.5977  15.4473  16.0211

          k = 0.7500 0.7500 0.2500 (  1499 PWs)   bands (ev):

   -70.4047 -36.5152 -36.5147 -36.5147 -32.8837 -32.8837 -32.8827 -32.8821
   -32.8821   1.5096  11.2289  11.2289  11.4516  15.0500  15.0500  15.8749

          k = 0.7500 0.7500 0.5000 (  1488 PWs)   bands (ev):

   -70.4036 -36.5304 -36.5134 -36.5132 -32.8841 -32.8834 -32.8828 -32.8821
   -32.8783   2.4021   8.9310  11.3877  12.7919  14.9379  15.0348  15.4789

          k = 0.7500 0.7500 0.7500 (  1499 PWs)   bands (ev):

   -70.4047 -36.5152 -36.5147 -36.5147 -32.8837 -32.8837 -32.8827 -32.8821
   -32.8821   1.5096  11.2289  11.2289  11.4516  15.0500  15.0500  15.8749

     highest occupied level (ev):    17.9849

     Writing all to output data dir ./work/calculation.save/

     init_run     :      0.49s CPU      0.51s WALL (       1 calls)
     electrons    :     12.01s CPU     12.89s WALL (       1 calls)

     Called by init_run:
     wfcinit      :      0.00s CPU      0.00s WALL (       1 calls)
     potinit      :      0.13s CPU      0.14s WALL (       1 calls)
     hinit0       :      0.34s CPU      0.35s WALL (       1 calls)

     Called by electrons:
     c_bands      :     12.01s CPU     12.89s WALL (       1 calls)
     v_of_rho     :      0.01s CPU      0.01s WALL (       1 calls)
     newd         :      0.01s CPU      0.02s WALL (       1 calls)
     PAW_pot      :      0.12s CPU      0.13s WALL (       1 calls)

     Called by c_bands:
     init_us_2    :      0.02s CPU      0.02s WALL (      64 calls)
     init_us_2:cp :      0.02s CPU      0.02s WALL (      64 calls)
     cegterg      :     11.44s CPU     12.28s WALL (     186 calls)

     Called by *egterg:
     cdiaghg      :      0.62s CPU      0.63s WALL (    3250 calls)
     h_psi        :      9.03s CPU      9.44s WALL (    3436 calls)
     s_psi        :      0.35s CPU      0.39s WALL (    3436 calls)
     g_psi        :      0.04s CPU      0.04s WALL (    3186 calls)

     Called by h_psi:
     h_psi:calbec :      0.39s CPU      0.55s WALL (    3436 calls)
     vloc_psi     :      8.19s CPU      8.36s WALL (    3436 calls)
     add_vuspsi   :      0.42s CPU      0.49s WALL (    3436 calls)

     General routines
     calbec       :      0.39s CPU      0.54s WALL (    3436 calls)
     fft          :      0.01s CPU      0.01s WALL (      12 calls)
     fftw         :      7.52s CPU      7.67s WALL (   52760 calls)
     davcio       :      0.00s CPU      0.01s WALL (     128 calls)

     Parallel routines

     PWSCF        :     12.69s CPU     13.61s WALL


   This run was terminated on:  12:10:19   2Feb2025            

=------------------------------------------------------------------------------=
   JOB DONE.
=------------------------------------------------------------------------------=
