
     Program PWSCF v.7.1 starts on 30Dec2024 at 17:57: 7 

     This program is part of the open-source Quantum ESPRESSO suite
     for quantum simulation of materials; please cite
         "P. Giannozzi et al., J. Phys.:Condens. Matter 21 395502 (2009);
         "P. Giannozzi et al., J. Phys.:Condens. Matter 29 465901 (2017);
         "P. Giannozzi et al., J. Chem. Phys. 152 154105 (2020);
          URL http://www.quantum-espresso.org", 
     in publications or presentations arising from this work. More details at
     http://www.quantum-espresso.org/quote

     Parallel version (MPI), running on     1 processors

     MPI processes distributed on     1 nodes
     0 MiB available memory on the printing compute node when the environment starts

     Waiting for input...
     Reading input from standard input
Warning: card &CELL ignored
Warning: card / ignored

     Current dimensions of program PWSCF are:
     Max number of different atomic species (ntypx) = 10
     Max number of k-points (npk) =  40000
     Max angular momentum in pseudopotentials (lmaxx) =  4
     Message from routine iosys:
     BEWARE:  force calculation with tetrahedra (not recommanded)
     Message from routine iosys:
     BEWARE: stress calculation with tetrahedra (not recommanded)
     file Se.pbe-dn-kjpaw_psl.1.0.0.UPF: wavefunction(s)  4S 4P 3D renormalized
     file Fe.pbe-spn-kjpaw_psl.1.0.0.UPF: wavefunction(s)  3P 3D renormalized

     Subspace diagonalization in iterative solution of the eigenvalue problem:
     a serial algorithm will be used


     G-vector sticks info
     --------------------
     sticks:   dense  smooth     PW     G-vecs:    dense   smooth      PW
     Sum         657     657    207                12477    12477    2193

     Using Slab Decomposition



     bravais-lattice index     =            0
     lattice parameter (alat)  =       6.0358  a.u.
     unit-cell volume          =     199.7200 (a.u.)^3
     number of atoms/cell      =            2
     number of atomic types    =            2
     number of electrons       =        32.00
     number of Kohn-Sham states=           20
     kinetic-energy cutoff     =      60.0000  Ry
     charge density cutoff     =     240.0000  Ry
     scf convergence threshold =      1.0E-05
     mixing beta               =       0.7000
     number of iterations used =            8  plain     mixing
     energy convergence thresh.=      0.0E+00
     force convergence thresh. =      0.0E+00
     Exchange-correlation= SLA  PW   PBX  PBC
                           (   1   4   3   4   0   0   0)
     nstep                     =           30


     celldm(1)=   6.035789  celldm(2)=   0.000000  celldm(3)=   0.000000
     celldm(4)=   0.000000  celldm(5)=   0.000000  celldm(6)=   0.000000

     crystal axes: (cart. coord. in units of alat)
               a(1) = (   1.000000   0.000000   0.000000 )  
               a(2) = (  -0.000000   0.953037   0.000000 )  
               a(3) = (   0.000000   0.000000   0.953037 )  

     reciprocal axes: (cart. coord. in units 2 pi/alat)
               b(1) = (  1.000000  0.000000 -0.000000 )  
               b(2) = (  0.000000  1.049277  0.000000 )  
               b(3) = (  0.000000 -0.000000  1.049277 )  


     PseudoPot. # 1 for Se read from file:
     ./pseudo/Se.pbe-dn-kjpaw_psl.1.0.0.UPF
     MD5 check sum: ac240dd2bae32a30e0bf3a38df9c8785
     Pseudo is Projector augmented-wave + core cor, Zval = 16.0
     Generated using &quot;atomic&quot; code by A. Dal Corso  v.6.3
     Shape of augmentation charge: PSQ
     Using radial grid of 1211 points,  6 beta functions with: 
                l(1) =   0
                l(2) =   0
                l(3) =   1
                l(4) =   1
                l(5) =   2
                l(6) =   2
     Q(r) pseudized with 0 coefficients 


     PseudoPot. # 2 for Fe read from file:
     ./pseudo/Fe.pbe-spn-kjpaw_psl.1.0.0.UPF
     MD5 check sum: fc81f059e5c5069939230b1155715ae8
     Pseudo is Projector augmented-wave + core cor, Zval = 16.0
     Generated using &quot;atomic&quot; code by A. Dal Corso  v.6.3
     Shape of augmentation charge: PSQ
     Using radial grid of 1191 points,  6 beta functions with: 
                l(1) =   0
                l(2) =   0
                l(3) =   1
                l(4) =   1
                l(5) =   2
                l(6) =   2
     Q(r) pseudized with 0 coefficients 


     atomic species   valence    mass     pseudopotential
        Se            16.00    78.96000     Se( 1.00)
        Fe            16.00    55.84500     Fe( 1.00)

     No symmetry found



   Cartesian axes

     site n.     atom                  positions (alat units)
         1           Fe  tau(   1) = (   0.0000000   0.0000000   0.0000000  )
         2           Se  tau(   2) = (   0.4765185   0.4765185   0.4765185  )

     number of k points=   260 (tetrahedron method)

     Number of k-points >= 100: set verbosity='high' to print them.

     Dense  grid:    12477 G-vectors     FFT dimensions: (  30,  30,  30)

     Estimated max dynamical RAM per process >     173.85 MB

     Check: negative core charge=   -0.000007

     Initial potential from superposition of free atoms

     starting charge      31.9995, renormalised to      32.0000
     Starting wfcs are   19 randomized atomic wfcs +    1 random wfcs
     Checking if some PAW data can be deallocated... 

     total cpu time spent up to now is        2.9 secs

     Self-consistent Calculation

     iteration #  1     ecut=    60.00 Ry     beta= 0.70
     Davidson diagonalization with overlap
     ethr =  1.00E-02,  avg # of iterations =  3.2

     total cpu time spent up to now is       10.3 secs

     total energy              =    -730.40135651 Ry
     estimated scf accuracy    <       0.77847984 Ry

     iteration #  2     ecut=    60.00 Ry     beta= 0.70
     Davidson diagonalization with overlap
     ethr =  2.43E-03,  avg # of iterations =  5.0

     total cpu time spent up to now is       19.6 secs

     total energy              =    -729.72792707 Ry
     estimated scf accuracy    <      13.98362437 Ry

     iteration #  3     ecut=    60.00 Ry     beta= 0.70
     Davidson diagonalization with overlap
     ethr =  2.43E-03,  avg # of iterations =  4.3

     total cpu time spent up to now is       28.6 secs

     total energy              =    -730.99185821 Ry
     estimated scf accuracy    <       0.09169330 Ry

     iteration #  4     ecut=    60.00 Ry     beta= 0.70
     Davidson diagonalization with overlap
     ethr =  2.87E-04,  avg # of iterations =  2.0

     total cpu time spent up to now is       34.8 secs

     total energy              =    -730.99972947 Ry
     estimated scf accuracy    <       0.00176269 Ry

     iteration #  5     ecut=    60.00 Ry     beta= 0.70
     Davidson diagonalization with overlap
     ethr =  5.51E-06,  avg # of iterations =  5.1

     total cpu time spent up to now is       43.5 secs

     total energy              =    -731.00026353 Ry
     estimated scf accuracy    <       0.00023813 Ry

     iteration #  6     ecut=    60.00 Ry     beta= 0.70
     Davidson diagonalization with overlap
     ethr =  7.44E-07,  avg # of iterations =  2.0

     total cpu time spent up to now is       49.9 secs

     total energy              =    -731.00034221 Ry
     estimated scf accuracy    <       0.00003025 Ry

     iteration #  7     ecut=    60.00 Ry     beta= 0.70
     Davidson diagonalization with overlap
     ethr =  9.45E-08,  avg # of iterations =  2.1

     total cpu time spent up to now is       56.2 secs

     total energy              =    -731.00033251 Ry
     estimated scf accuracy    <       0.00002847 Ry

     iteration #  8     ecut=    60.00 Ry     beta= 0.70
     Davidson diagonalization with overlap
     ethr =  8.90E-08,  avg # of iterations =  1.1

     total cpu time spent up to now is       62.1 secs

     End of self-consistent calculation

     Number of k-points >= 100: set verbosity='high' to print the bands.

     the Fermi energy is    15.1971 ev

!    total energy              =    -731.00033277 Ry
     estimated scf accuracy    <       0.00000014 Ry

     convergence has been achieved in   8 iterations

     Forces acting on atoms (cartesian axes, Ry/au):

     atom    1 type  2   force =     0.00925457   -0.00001914   -0.00007018
     atom    2 type  1   force =    -0.00925457    0.00001914    0.00007018

     Total force =     0.013088     Total SCF correction =     0.000965


     Computing stress (Cartesian axis) and pressure

          total   stress  (Ry/bohr**3)                   (kbar)     P=     -114.74
  -0.00104452   0.00000170  -0.00000171         -153.65        0.25       -0.25
   0.00000170  -0.00064617   0.00000220            0.25      -95.05        0.32
  -0.00000171   0.00000220  -0.00064935           -0.25        0.32      -95.52


     Molecular Dynamics Calculation

     Starting temperature  =    10.00 K

     temperature is set once at start

     mass Se               =    78.96
     mass Fe               =    55.84
     Time step             =    20.00 a.u.,  0.9676 femto-seconds

     Entering Dynamics:    iteration =     1
                           time      =   0.0010 pico-seconds


ATOMIC_POSITIONS (angstrom)
Fe            0.0004611814        0.0001150545        0.0001905444
Se            1.5216748263        1.5219196269        1.5218662362


     kinetic energy (Ekin) =           0.00009500 Ry
     temperature           =          10.00000000 K 
     Ekin + Etot (const)   =        -731.00023776 Ry
     Ions kinetic stress =            0.05 (kbar)
                                      0.11           0.03           0.05
                                      0.03           0.01           0.01
                                      0.05           0.01           0.02



     Linear momentum :    0.0000000000   -0.0000000000   -0.0000000000

     File ./work/try_3/calculation_try_3.msd.dat deleted, as requested

     Writing config-only to output data dir ./work/try_3/calculation_try_3.save/
     NEW-OLD atomic charge density approx. for the potential

     Check: negative core charge=   -0.000007

     total cpu time spent up to now is       64.8 secs

     Self-consistent Calculation

     iteration #  1     ecut=    60.00 Ry     beta= 0.70
     Davidson diagonalization with overlap
     ethr =  1.00E-06,  avg # of iterations =  3.0

     Threshold (ethr) on eigenvalues was too large:
     Diagonalizing with lowered threshold

     Davidson diagonalization with overlap
     ethr =  4.57E-09,  avg # of iterations =  4.0

     total cpu time spent up to now is       81.4 secs

     End of self-consistent calculation

     Number of k-points >= 100: set verbosity='high' to print the bands.

     the Fermi energy is    15.1950 ev

!    total energy              =    -731.00034247 Ry
     estimated scf accuracy    <       0.00000154 Ry

     convergence has been achieved in   1 iterations

     Forces acting on atoms (cartesian axes, Ry/au):

     atom    1 type  2   force =     0.00768244   -0.00029796   -0.00031190
     atom    2 type  1   force =    -0.00768244    0.00029796    0.00031190

     Total force =     0.010882     Total SCF correction =     0.001353
     SCF correction compared to forces is large: reduce conv_thr to get better values


     Computing stress (Cartesian axis) and pressure

          total   stress  (Ry/bohr**3)                   (kbar)     P=     -101.62
  -0.00095463   0.00000186  -0.00000151         -140.43        0.27       -0.22
   0.00000186  -0.00056439   0.00000299            0.27      -83.02        0.44
  -0.00000151   0.00000299  -0.00055344           -0.22        0.44      -81.41


     Entering Dynamics:    iteration =     2
                           time      =   0.0019 pico-seconds


ATOMIC_POSITIONS (angstrom)
Fe            0.0009543109        0.0002288698        0.0003797917
Se            1.5213260571        1.5218391302        1.5217323897


     kinetic energy (Ekin) =           0.00010738 Ry
     temperature           =          11.30304729 K 
     Ekin + Etot (const)   =        -731.00023509 Ry
     Ions kinetic stress =            0.05 (kbar)
                                      0.13           0.03           0.05
                                      0.03           0.01           0.01
                                      0.05           0.01           0.02



     Linear momentum :    0.0000000000   -0.0000000000   -0.0000000000

     Writing config-only to output data dir ./work/try_3/calculation_try_3.save/
     NEW-OLD atomic charge density approx. for the potential

     Check: negative core charge=   -0.000007

     total cpu time spent up to now is       84.0 secs

     Self-consistent Calculation

     iteration #  1     ecut=    60.00 Ry     beta= 0.70
     Davidson diagonalization with overlap
     ethr =  1.00E-06,  avg # of iterations =  3.0

     total cpu time spent up to now is       92.3 secs

     total energy              =    -731.00030211 Ry
     estimated scf accuracy    <       0.00007512 Ry

     iteration #  2     ecut=    60.00 Ry     beta= 0.70
     Davidson diagonalization with overlap
     ethr =  2.35E-07,  avg # of iterations =  4.1

     total cpu time spent up to now is      100.6 secs

     total energy              =    -731.00011431 Ry
     estimated scf accuracy    <       0.00226955 Ry

     iteration #  3     ecut=    60.00 Ry     beta= 0.70
     Davidson diagonalization with overlap
     ethr =  2.35E-07,  avg # of iterations =  4.0

     total cpu time spent up to now is      108.8 secs

     End of self-consistent calculation

     Number of k-points >= 100: set verbosity='high' to print the bands.

     the Fermi energy is    15.1976 ev

!    total energy              =    -731.00035615 Ry
     estimated scf accuracy    <       0.00000060 Ry

     convergence has been achieved in   3 iterations

     Forces acting on atoms (cartesian axes, Ry/au):

     atom    1 type  2   force =     0.00824463   -0.00017767   -0.00014310
     atom    2 type  1   force =    -0.00824463    0.00017767    0.00014310

     Total force =     0.011664     Total SCF correction =     0.003303
     SCF correction compared to forces is large: reduce conv_thr to get better values


     Computing stress (Cartesian axis) and pressure

          total   stress  (Ry/bohr**3)                   (kbar)     P=     -110.53
  -0.00101474   0.00000169  -0.00000155         -149.27        0.25       -0.23
   0.00000169  -0.00062844   0.00000292            0.25      -92.45        0.43
  -0.00000155   0.00000292  -0.00061093           -0.23        0.43      -89.87


     Entering Dynamics:    iteration =     3
                           time      =   0.0029 pico-seconds


ATOMIC_POSITIONS (angstrom)
Fe            0.0014817265        0.0003419464        0.0005684439
Se            1.5209530388        1.5217591561        1.5215989641


     kinetic energy (Ekin) =           0.00011984 Ry
     temperature           =          12.61437802 K 
     Ekin + Etot (const)   =        -731.00023631 Ry
     Ions kinetic stress =            0.06 (kbar)
                                      0.15           0.03           0.06
                                      0.03           0.01           0.01
                                      0.06           0.01           0.02



     Linear momentum :    0.0000000000   -0.0000000000   -0.0000000000

     Writing config-only to output data dir ./work/try_3/calculation_try_3.save/
     NEW-OLD atomic charge density approx. for the potential

     Check: negative core charge=   -0.000007

     total cpu time spent up to now is      111.3 secs

     Self-consistent Calculation

     iteration #  1     ecut=    60.00 Ry     beta= 0.70
     Davidson diagonalization with overlap
     ethr =  1.00E-06,  avg # of iterations =  3.4

     Threshold (ethr) on eigenvalues was too large:
     Diagonalizing with lowered threshold

     Davidson diagonalization with overlap
     ethr =  1.74E-08,  avg # of iterations =  2.5

     total cpu time spent up to now is      126.3 secs

     End of self-consistent calculation

     Number of k-points >= 100: set verbosity='high' to print the bands.

     the Fermi energy is    15.1939 ev

!    total energy              =    -731.00036408 Ry
     estimated scf accuracy    <       0.00000568 Ry

     convergence has been achieved in   1 iterations

     Forces acting on atoms (cartesian axes, Ry/au):

     atom    1 type  2   force =     0.00790219   -0.00019473   -0.00020708
     atom    2 type  1   force =    -0.00790219    0.00019473    0.00020708

     Total force =     0.011183     Total SCF correction =     0.001133
     SCF correction compared to forces is large: reduce conv_thr to get better values


     Computing stress (Cartesian axis) and pressure

          total   stress  (Ry/bohr**3)                   (kbar)     P=     -103.37
  -0.00096634   0.00000236  -0.00000093         -142.15        0.35       -0.14
   0.00000236  -0.00055315   0.00000271            0.35      -81.37        0.40
  -0.00000093   0.00000271  -0.00058857           -0.14        0.40      -86.58


     Entering Dynamics:    iteration =     4
                           time      =   0.0039 pico-seconds


ATOMIC_POSITIONS (angstrom)
Fe            0.0020420041        0.0004542131        0.0007562350
Se            1.5205567787        1.5216797547        1.5214661476


     kinetic energy (Ekin) =           0.00013340 Ry
     temperature           =          14.04102631 K 
     Ekin + Etot (const)   =        -731.00023069 Ry
     Ions kinetic stress =            0.07 (kbar)
                                      0.17           0.04           0.06
                                      0.04           0.01           0.01
                                      0.06           0.01           0.02



     Linear momentum :   -0.0000000000   -0.0000000000   -0.0000000000

     Writing config-only to output data dir ./work/try_3/calculation_try_3.save/
     NEW-OLD atomic charge density approx. for the potential

     Check: negative core charge=   -0.000007

     total cpu time spent up to now is      128.9 secs

     Self-consistent Calculation

     iteration #  1     ecut=    60.00 Ry     beta= 0.70
     Davidson diagonalization with overlap
     ethr =  1.00E-06,  avg # of iterations =  3.7

     total cpu time spent up to now is      137.8 secs

     total energy              =    -731.00020570 Ry
     estimated scf accuracy    <       0.00024475 Ry

     iteration #  2     ecut=    60.00 Ry     beta= 0.70
     Davidson diagonalization with overlap
     ethr =  7.65E-07,  avg # of iterations =  4.0

     total cpu time spent up to now is      146.4 secs

     total energy              =    -730.99964465 Ry
     estimated scf accuracy    <       0.00728971 Ry

     iteration #  3     ecut=    60.00 Ry     beta= 0.70
     Davidson diagonalization with overlap
     ethr =  7.65E-07,  avg # of iterations =  4.0

     total cpu time spent up to now is      154.6 secs

     End of self-consistent calculation

     Number of k-points >= 100: set verbosity='high' to print the bands.

     the Fermi energy is    15.1988 ev

!    total energy              =    -731.00038005 Ry
     estimated scf accuracy    <       0.00000609 Ry

     convergence has been achieved in   3 iterations

     Forces acting on atoms (cartesian axes, Ry/au):

     atom    1 type  2   force =     0.00850215   -0.00009256   -0.00002471
     atom    2 type  1   force =    -0.00850215    0.00009256    0.00002471

     Total force =     0.012025     Total SCF correction =     0.002812
     SCF correction compared to forces is large: reduce conv_thr to get better values


     Computing stress (Cartesian axis) and pressure

          total   stress  (Ry/bohr**3)                   (kbar)     P=     -113.99
  -0.00103759   0.00000229  -0.00000089         -152.63        0.34       -0.13
   0.00000229  -0.00061444   0.00000239            0.34      -90.39        0.35
  -0.00000089   0.00000239  -0.00067269           -0.13        0.35      -98.96


     Entering Dynamics:    iteration =     5
                           time      =   0.0048 pico-seconds


ATOMIC_POSITIONS (angstrom)
Fe            0.0026376387        0.0005660949        0.0009439233
Se            1.5201355120        1.5216006255        1.5213334038


     kinetic energy (Ekin) =           0.00014812 Ry
     temperature           =          15.59046523 K 
     Ekin + Etot (const)   =        -731.00023193 Ry
     Ions kinetic stress =            0.07 (kbar)
                                      0.19           0.04           0.06
                                      0.04           0.01           0.01
                                      0.06           0.01           0.02



     Linear momentum :   -0.0000000000   -0.0000000000   -0.0000000000

     Writing config-only to output data dir ./work/try_3/calculation_try_3.save/
     NEW-OLD atomic charge density approx. for the potential

     Check: negative core charge=   -0.000007

     total cpu time spent up to now is      157.2 secs

     Self-consistent Calculation

     iteration #  1     ecut=    60.00 Ry     beta= 0.70
     Davidson diagonalization with overlap
     ethr =  1.00E-06,  avg # of iterations =  3.8

     total cpu time spent up to now is      165.8 secs

     total energy              =    -731.00034733 Ry
     estimated scf accuracy    <       0.00006942 Ry

     iteration #  2     ecut=    60.00 Ry     beta= 0.70
     Davidson diagonalization with overlap
     ethr =  2.17E-07,  avg # of iterations =  4.1

     total cpu time spent up to now is      174.0 secs

     total energy              =    -731.00026144 Ry
     estimated scf accuracy    <       0.00140806 Ry

     iteration #  3     ecut=    60.00 Ry     beta= 0.70
     Davidson diagonalization with overlap
     ethr =  2.17E-07,  avg # of iterations =  4.0

     total cpu time spent up to now is      182.2 secs

     total energy              =    -731.00039171 Ry
     estimated scf accuracy    <       0.00002986 Ry

     iteration #  4     ecut=    60.00 Ry     beta= 0.70
     Davidson diagonalization with overlap
     ethr =  9.33E-08,  avg # of iterations =  1.1

     total cpu time spent up to now is      188.3 secs

     End of self-consistent calculation

     Number of k-points >= 100: set verbosity='high' to print the bands.

     the Fermi energy is    15.1969 ev

!    total energy              =    -731.00039843 Ry
     estimated scf accuracy    <       0.00000010 Ry

     convergence has been achieved in   4 iterations

     Forces acting on atoms (cartesian axes, Ry/au):

     atom    1 type  2   force =     0.00891021   -0.00003745    0.00010184
     atom    2 type  1   force =    -0.00891021    0.00003745   -0.00010184

     Total force =     0.012602     Total SCF correction =     0.001678
     SCF correction compared to forces is large: reduce conv_thr to get better values


     Computing stress (Cartesian axis) and pressure

          total   stress  (Ry/bohr**3)                   (kbar)     P=     -110.60
  -0.00101351   0.00000209  -0.00000117         -149.09        0.31       -0.17
   0.00000209  -0.00061933   0.00000193            0.31      -91.11        0.28
  -0.00000117   0.00000193  -0.00062264           -0.17        0.28      -91.59


     Entering Dynamics:    iteration =     6
                           time      =   0.0058 pico-seconds


ATOMIC_POSITIONS (angstrom)
Fe            0.0032703273        0.0006778210        0.0011320352
Se            1.5196880387        1.5215216065        1.5212003604


     kinetic energy (Ekin) =           0.00016486 Ry
     temperature           =          17.35271879 K 
     Ekin + Etot (const)   =        -731.00023357 Ry
     Ions kinetic stress =            0.08 (kbar)
                                      0.22           0.04           0.07
                                      0.04           0.01           0.01
                                      0.07           0.01           0.02



     Linear momentum :   -0.0000000000    0.0000000000   -0.0000000000

     Writing config-only to output data dir ./work/try_3/calculation_try_3.save/
     NEW-OLD atomic charge density approx. for the potential

     Check: negative core charge=   -0.000007

     total cpu time spent up to now is      191.0 secs

     Self-consistent Calculation

     iteration #  1     ecut=    60.00 Ry     beta= 0.70
     Davidson diagonalization with overlap
     ethr =  1.00E-06,  avg # of iterations =  3.9

     Threshold (ethr) on eigenvalues was too large:
     Diagonalizing with lowered threshold

     Davidson diagonalization with overlap
     ethr =  1.31E-08,  avg # of iterations =  2.5

     total cpu time spent up to now is      206.7 secs

     End of self-consistent calculation

     Number of k-points >= 100: set verbosity='high' to print the bands.

     the Fermi energy is    15.2004 ev

!    total energy              =    -731.00041163 Ry
     estimated scf accuracy    <       0.00000436 Ry

     convergence has been achieved in   1 iterations

     Forces acting on atoms (cartesian axes, Ry/au):

     atom    1 type  2   force =     0.00783441   -0.00021546   -0.00020908
     atom    2 type  1   force =    -0.00783441    0.00021546    0.00020908

     Total force =     0.011088     Total SCF correction =     0.000460


     Computing stress (Cartesian axis) and pressure

          total   stress  (Ry/bohr**3)                   (kbar)     P=     -119.27
  -0.00107182   0.00000202  -0.00000051         -157.67        0.30       -0.07
   0.00000202  -0.00067649   0.00000285            0.30      -99.52        0.42
  -0.00000051   0.00000285  -0.00068398           -0.07        0.42     -100.62


     Entering Dynamics:    iteration =     7
                           time      =   0.0068 pico-seconds


ATOMIC_POSITIONS (angstrom)
Fe            0.0039355960        0.0007886510        0.0013192775
Se            1.5192175228        1.5214432212        1.5210679320


     kinetic energy (Ekin) =           0.00018184 Ry
     temperature           =          19.14015751 K 
     Ekin + Etot (const)   =        -731.00022979 Ry
     Ions kinetic stress =            0.09 (kbar)
                                      0.24           0.04           0.07
                                      0.04           0.01           0.01
                                      0.07           0.01           0.02



     Linear momentum :   -0.0000000000    0.0000000000   -0.0000000000

     Writing config-only to output data dir ./work/try_3/calculation_try_3.save/
     NEW-OLD atomic charge density approx. for the potential

     Check: negative core charge=   -0.000007

     total cpu time spent up to now is      209.3 secs

     Self-consistent Calculation

     iteration #  1     ecut=    60.00 Ry     beta= 0.70
     Davidson diagonalization with overlap
     ethr =  1.00E-06,  avg # of iterations =  3.5

     total cpu time spent up to now is      218.6 secs

     total energy              =    -731.00021567 Ry
     estimated scf accuracy    <       0.00026943 Ry

     iteration #  2     ecut=    60.00 Ry     beta= 0.70
     Davidson diagonalization with overlap
     ethr =  8.42E-07,  avg # of iterations =  4.1

     total cpu time spent up to now is      227.2 secs

     total energy              =    -730.99972715 Ry
     estimated scf accuracy    <       0.00810140 Ry

     iteration #  3     ecut=    60.00 Ry     beta= 0.70
     Davidson diagonalization with overlap
     ethr =  8.42E-07,  avg # of iterations =  4.0

     total cpu time spent up to now is      235.4 secs

     End of self-consistent calculation

     Number of k-points >= 100: set verbosity='high' to print the bands.

     the Fermi energy is    15.1968 ev

!    total energy              =    -731.00043084 Ry
     estimated scf accuracy    <       0.00000023 Ry

     convergence has been achieved in   3 iterations

     Forces acting on atoms (cartesian axes, Ry/au):

     atom    1 type  2   force =     0.00847649   -0.00010951   -0.00003761
     atom    2 type  1   force =    -0.00847649    0.00010951    0.00003761

     Total force =     0.011989     Total SCF correction =     0.003721
     SCF correction compared to forces is large: reduce conv_thr to get better values


     Computing stress (Cartesian axis) and pressure

          total   stress  (Ry/bohr**3)                   (kbar)     P=     -112.12
  -0.00102194   0.00000172  -0.00000026         -150.33        0.25       -0.04
   0.00000172  -0.00062794   0.00000296            0.25      -92.37        0.44
  -0.00000026   0.00000296  -0.00063674           -0.04        0.44      -93.67


     Entering Dynamics:    iteration =     8
                           time      =   0.0077 pico-seconds


ATOMIC_POSITIONS (angstrom)
Fe            0.0046361151        0.0008990257        0.0015063634
Se            1.5187220759        1.5213651579        1.5209356142


     kinetic energy (Ekin) =           0.00019923 Ry
     temperature           =          20.97050021 K 
     Ekin + Etot (const)   =        -731.00023161 Ry
     Ions kinetic stress =            0.10 (kbar)
                                      0.27           0.04           0.07
                                      0.04           0.01           0.01
                                      0.07           0.01           0.02



     Linear momentum :   -0.0000000000    0.0000000000   -0.0000000000

     Writing config-only to output data dir ./work/try_3/calculation_try_3.save/
     NEW-OLD atomic charge density approx. for the potential

     Check: negative core charge=   -0.000007

     total cpu time spent up to now is      238.0 secs

     Self-consistent Calculation

     iteration #  1     ecut=    60.00 Ry     beta= 0.70
     Davidson diagonalization with overlap
     ethr =  1.00E-06,  avg # of iterations =  3.7

     Threshold (ethr) on eigenvalues was too large:
     Diagonalizing with lowered threshold

     Davidson diagonalization with overlap
     ethr =  3.90E-09,  avg # of iterations =  3.8

     total cpu time spent up to now is      254.8 secs

     End of self-consistent calculation

     Number of k-points >= 100: set verbosity='high' to print the bands.

     the Fermi energy is    15.1958 ev

!    total energy              =    -731.00044847 Ry
     estimated scf accuracy    <       0.00000130 Ry

     convergence has been achieved in   1 iterations

     Forces acting on atoms (cartesian axes, Ry/au):

     atom    1 type  2   force =     0.00827338   -0.00012721   -0.00006962
     atom    2 type  1   force =    -0.00827338    0.00012721    0.00006962

     Total force =     0.011702     Total SCF correction =     0.000770


     Computing stress (Cartesian axis) and pressure

          total   stress  (Ry/bohr**3)                   (kbar)     P=     -106.49
  -0.00098455   0.00000292  -0.00000189         -144.83        0.43       -0.28
   0.00000292  -0.00060170   0.00000234            0.43      -88.51        0.34
  -0.00000189   0.00000234  -0.00058540           -0.28        0.34      -86.11


     Entering Dynamics:    iteration =     9
                           time      =   0.0087 pico-seconds


ATOMIC_POSITIONS (angstrom)
Fe            0.0053710398        0.0010088714        0.0016931599
Se            1.5182022954        1.5212874688        1.5208035011


     kinetic energy (Ekin) =           0.00021808 Ry
     temperature           =          22.95436339 K 
     Ekin + Etot (const)   =        -731.00023039 Ry
     Ions kinetic stress =            0.11 (kbar)
                                      0.29           0.05           0.08
                                      0.05           0.01           0.01
                                      0.08           0.01           0.02



     Linear momentum :   -0.0000000000   -0.0000000000   -0.0000000000

     Writing config-only to output data dir ./work/try_3/calculation_try_3.save/
     NEW-OLD atomic charge density approx. for the potential

     Check: negative core charge=   -0.000007

     total cpu time spent up to now is      257.4 secs

     Self-consistent Calculation

     iteration #  1     ecut=    60.00 Ry     beta= 0.70
     Davidson diagonalization with overlap
     ethr =  1.00E-06,  avg # of iterations =  4.0

     total cpu time spent up to now is      266.8 secs

     total energy              =    -731.00043652 Ry
     estimated scf accuracy    <       0.00004451 Ry

     iteration #  2     ecut=    60.00 Ry     beta= 0.70
     Davidson diagonalization with overlap
     ethr =  1.39E-07,  avg # of iterations =  4.0

     total cpu time spent up to now is      275.5 secs

     total energy              =    -731.00032442 Ry
     estimated scf accuracy    <       0.00130787 Ry

     iteration #  3     ecut=    60.00 Ry     beta= 0.70
     Davidson diagonalization with overlap
     ethr =  1.39E-07,  avg # of iterations =  4.0

     total cpu time spent up to now is      283.6 secs

     End of self-consistent calculation

     Number of k-points >= 100: set verbosity='high' to print the bands.

     the Fermi energy is    15.1979 ev

!    total energy              =    -731.00046869 Ry
     estimated scf accuracy    <       0.00000124 Ry

     convergence has been achieved in   3 iterations

     Forces acting on atoms (cartesian axes, Ry/au):

     atom    1 type  2   force =     0.00890270   -0.00003931    0.00007699
     atom    2 type  1   force =    -0.00890270    0.00003931   -0.00007699

     Total force =     0.012591     Total SCF correction =     0.002473
     SCF correction compared to forces is large: reduce conv_thr to get better values


     Computing stress (Cartesian axis) and pressure

          total   stress  (Ry/bohr**3)                   (kbar)     P=     -111.64
  -0.00101900   0.00000276  -0.00000232         -149.90        0.41       -0.34
   0.00000276  -0.00064174   0.00000245            0.41      -94.40        0.36
  -0.00000232   0.00000245  -0.00061609           -0.34        0.36      -90.63


     Entering Dynamics:    iteration =    10
                           time      =   0.0097 pico-seconds


ATOMIC_POSITIONS (angstrom)
Fe            0.0061429872        0.0011185536        0.0018802765
Se            1.5176563303        1.5212098953        1.5206711616


     kinetic energy (Ekin) =           0.00023843 Ry
     temperature           =          25.09673795 K 
     Ekin + Etot (const)   =        -731.00023026 Ry
     Ions kinetic stress =            0.12 (kbar)
                                      0.32           0.05           0.08
                                      0.05           0.01           0.01
                                      0.08           0.01           0.02



     Linear momentum :   -0.0000000000   -0.0000000000   -0.0000000000

     Writing config-only to output data dir ./work/try_3/calculation_try_3.save/
     NEW-OLD atomic charge density approx. for the potential

     Check: negative core charge=   -0.000007

     total cpu time spent up to now is      286.2 secs

     Self-consistent Calculation

     iteration #  1     ecut=    60.00 Ry     beta= 0.70
     Davidson diagonalization with overlap
     ethr =  1.00E-06,  avg # of iterations =  4.1

     Threshold (ethr) on eigenvalues was too large:
     Diagonalizing with lowered threshold

     Davidson diagonalization with overlap
     ethr =  4.22E-08,  avg # of iterations =  2.0

     total cpu time spent up to now is      301.3 secs

     total energy              =    -731.00047739 Ry
     estimated scf accuracy    <       0.00001377 Ry

     iteration #  2     ecut=    60.00 Ry     beta= 0.70
     Davidson diagonalization with overlap
     ethr =  4.30E-08,  avg # of iterations =  3.9

     total cpu time spent up to now is      309.5 secs

     total energy              =    -731.00046595 Ry
     estimated scf accuracy    <       0.00028230 Ry

     iteration #  3     ecut=    60.00 Ry     beta= 0.70
     Davidson diagonalization with overlap
     ethr =  4.30E-08,  avg # of iterations =  4.0

     total cpu time spent up to now is      317.6 secs

     End of self-consistent calculation

     Number of k-points >= 100: set verbosity='high' to print the bands.

     the Fermi energy is    15.1942 ev

!    total energy              =    -731.00048494 Ry
     estimated scf accuracy    <       0.00000540 Ry

     convergence has been achieved in   3 iterations

     Forces acting on atoms (cartesian axes, Ry/au):

     atom    1 type  2   force =     0.00948524    0.00002596    0.00019957
     atom    2 type  1   force =    -0.00948524   -0.00002596   -0.00019957

     Total force =     0.013417     Total SCF correction =     0.001321


     Computing stress (Cartesian axis) and pressure

          total   stress  (Ry/bohr**3)                   (kbar)     P=     -103.96
  -0.00096621   0.00000286  -0.00000297         -142.13        0.42       -0.44
   0.00000286  -0.00059638   0.00000259            0.42      -87.73        0.38
  -0.00000297   0.00000259  -0.00055747           -0.44        0.38      -82.01


     Entering Dynamics:    iteration =    11
                           time      =   0.0106 pico-seconds


ATOMIC_POSITIONS (angstrom)
Fe            0.0069543800        0.0012283437        0.0020682230
Se            1.5170824672        1.5211322455        1.5205382352


     kinetic energy (Ekin) =           0.00026143 Ry
     temperature           =          27.51732773 K 
     Ekin + Etot (const)   =        -731.00022351 Ry
     Ions kinetic stress =            0.13 (kbar)
                                      0.36           0.05           0.08
                                      0.05           0.01           0.01
                                      0.08           0.01           0.02



     Linear momentum :   -0.0000000000   -0.0000000000   -0.0000000000

     Writing config-only to output data dir ./work/try_3/calculation_try_3.save/
     NEW-OLD atomic charge density approx. for the potential

     Check: negative core charge=   -0.000007

     total cpu time spent up to now is      320.2 secs

     Self-consistent Calculation

     iteration #  1     ecut=    60.00 Ry     beta= 0.70
     Davidson diagonalization with overlap
     ethr =  1.00E-06,  avg # of iterations =  4.4

     total cpu time spent up to now is      329.6 secs

     total energy              =    -731.00035810 Ry
     estimated scf accuracy    <       0.00021094 Ry

     iteration #  2     ecut=    60.00 Ry     beta= 0.70
     Davidson diagonalization with overlap
     ethr =  6.59E-07,  avg # of iterations =  4.1

     total cpu time spent up to now is      338.3 secs

     total energy              =    -730.99987326 Ry
     estimated scf accuracy    <       0.00622945 Ry

     iteration #  3     ecut=    60.00 Ry     beta= 0.70
     Davidson diagonalization with overlap
     ethr =  6.59E-07,  avg # of iterations =  4.0

     total cpu time spent up to now is      346.8 secs

     End of self-consistent calculation

     Number of k-points >= 100: set verbosity='high' to print the bands.

     the Fermi energy is    15.1992 ev

!    total energy              =    -731.00050754 Ry
     estimated scf accuracy    <       0.00000691 Ry

     convergence has been achieved in   3 iterations

     Forces acting on atoms (cartesian axes, Ry/au):

     atom    1 type  2   force =     0.00929537   -0.00001638    0.00011251
     atom    2 type  1   force =    -0.00929537    0.00001638   -0.00011251

     Total force =     0.013147     Total SCF correction =     0.002412
     SCF correction compared to forces is large: reduce conv_thr to get better values


     Computing stress (Cartesian axis) and pressure

          total   stress  (Ry/bohr**3)                   (kbar)     P=     -114.43
  -0.00103725   0.00000271  -0.00000327         -152.58        0.40       -0.48
   0.00000271  -0.00067846   0.00000220            0.40      -99.80        0.32
  -0.00000327   0.00000220  -0.00061784           -0.48        0.32      -90.89


     Entering Dynamics:    iteration =    12
                           time      =   0.0116 pico-seconds


ATOMIC_POSITIONS (angstrom)
Fe            0.0078044284        0.0013380657        0.0022566374
Se            1.5164812647        1.5210546439        1.5204049778


     kinetic energy (Ekin) =           0.00028610 Ry
     temperature           =          30.11423903 K 
     Ekin + Etot (const)   =        -731.00022144 Ry
     Ions kinetic stress =            0.14 (kbar)
                                      0.39           0.05           0.09
                                      0.05           0.01           0.01
                                      0.09           0.01           0.02



     Linear momentum :    0.0000000000   -0.0000000000    0.0000000000

     Writing config-only to output data dir ./work/try_3/calculation_try_3.save/
     NEW-OLD atomic charge density approx. for the potential

     Check: negative core charge=   -0.000007

     total cpu time spent up to now is      349.5 secs

     Self-consistent Calculation

     iteration #  1     ecut=    60.00 Ry     beta= 0.70
     Davidson diagonalization with overlap
     ethr =  1.00E-06,  avg # of iterations =  4.6

     total cpu time spent up to now is      359.8 secs

     total energy              =    -731.00046004 Ry
     estimated scf accuracy    <       0.00009776 Ry

     iteration #  2     ecut=    60.00 Ry     beta= 0.70
     Davidson diagonalization with overlap
     ethr =  3.06E-07,  avg # of iterations =  4.0

     total cpu time spent up to now is      368.5 secs

     total energy              =    -731.00032595 Ry
     estimated scf accuracy    <       0.00221159 Ry

     iteration #  3     ecut=    60.00 Ry     beta= 0.70
     Davidson diagonalization with overlap
     ethr =  3.06E-07,  avg # of iterations =  4.0

     total cpu time spent up to now is      376.9 secs

     total energy              =    -731.00052814 Ry
     estimated scf accuracy    <       0.00002751 Ry

     iteration #  4     ecut=    60.00 Ry     beta= 0.70
     Davidson diagonalization with overlap
     ethr =  8.60E-08,  avg # of iterations =  1.1

     total cpu time spent up to now is      383.1 secs

     End of self-consistent calculation

     Number of k-points >= 100: set verbosity='high' to print the bands.

     the Fermi energy is    15.1970 ev

!    total energy              =    -731.00053366 Ry
     estimated scf accuracy    <       0.00000019 Ry

     convergence has been achieved in   4 iterations

     Forces acting on atoms (cartesian axes, Ry/au):

     atom    1 type  2   force =     0.00957425    0.00005022    0.00022442
     atom    2 type  1   force =    -0.00957425   -0.00005022   -0.00022442

     Total force =     0.013544     Total SCF correction =     0.001530
     SCF correction compared to forces is large: reduce conv_thr to get better values


     Computing stress (Cartesian axis) and pressure

          total   stress  (Ry/bohr**3)                   (kbar)     P=     -110.23
  -0.00100573   0.00000221  -0.00000092         -147.95        0.33       -0.14
   0.00000221  -0.00062250   0.00000576            0.33      -91.57        0.85
  -0.00000092   0.00000576  -0.00061976           -0.14        0.85      -91.17


     Entering Dynamics:    iteration =    13
                           time      =   0.0126 pico-seconds


ATOMIC_POSITIONS (angstrom)
Fe            0.0086942922        0.0014479966        0.0024459850
Se            1.5158519024        1.5209768945        1.5202710604


     kinetic energy (Ekin) =           0.00031209 Ry
     temperature           =          32.85010681 K 
     Ekin + Etot (const)   =        -731.00022157 Ry
     Ions kinetic stress =            0.15 (kbar)
                                      0.43           0.05           0.09
                                      0.05           0.01           0.01
                                      0.09           0.01           0.02



     Linear momentum :    0.0000000000   -0.0000000000    0.0000000000

     Writing config-only to output data dir ./work/try_3/calculation_try_3.save/
     NEW-OLD atomic charge density approx. for the potential

     Check: negative core charge=   -0.000007

     total cpu time spent up to now is      385.7 secs

     Self-consistent Calculation

     iteration #  1     ecut=    60.00 Ry     beta= 0.70
     Davidson diagonalization with overlap
     ethr =  1.00E-06,  avg # of iterations =  4.6

     Threshold (ethr) on eigenvalues was too large:
     Diagonalizing with lowered threshold

     Davidson diagonalization with overlap
     ethr =  1.17E-08,  avg # of iterations =  2.5

     total cpu time spent up to now is      401.7 secs

     End of self-consistent calculation

     Number of k-points >= 100: set verbosity='high' to print the bands.

     the Fermi energy is    15.2000 ev

!    total energy              =    -731.00055570 Ry
     estimated scf accuracy    <       0.00000388 Ry

     convergence has been achieved in   1 iterations

     Forces acting on atoms (cartesian axes, Ry/au):

     atom    1 type  2   force =     0.00800222   -0.00015265   -0.00010551
     atom    2 type  1   force =    -0.00800222    0.00015265    0.00010551

     Total force =     0.011320     Total SCF correction =     0.001328
     SCF correction compared to forces is large: reduce conv_thr to get better values


     Computing stress (Cartesian axis) and pressure

          total   stress  (Ry/bohr**3)                   (kbar)     P=     -116.65
  -0.00104754   0.00000311   0.00000125         -154.10        0.46        0.18
   0.00000311  -0.00066829  -0.00000619            0.46      -98.31       -0.91
   0.00000125  -0.00000619  -0.00066307            0.18       -0.91      -97.54


     Entering Dynamics:    iteration =    14
                           time      =   0.0135 pico-seconds


ATOMIC_POSITIONS (angstrom)
Fe            0.0096174340        0.0015572926        0.0026348938
Se            1.5151990040        1.5208995941        1.5201374533


     kinetic energy (Ekin) =           0.00033729 Ry
     temperature           =          35.50283922 K 
     Ekin + Etot (const)   =        -731.00021841 Ry
     Ions kinetic stress =            0.17 (kbar)
                                      0.47           0.06           0.10
                                      0.06           0.01           0.01
                                      0.10           0.01           0.02



     Linear momentum :   -0.0000000000   -0.0000000000    0.0000000000

     Writing config-only to output data dir ./work/try_3/calculation_try_3.save/
     NEW-OLD atomic charge density approx. for the potential

     Check: negative core charge=   -0.000007

     total cpu time spent up to now is      404.3 secs

     Self-consistent Calculation

     iteration #  1     ecut=    60.00 Ry     beta= 0.70
     Davidson diagonalization with overlap
     ethr =  1.00E-06,  avg # of iterations =  4.8

     total cpu time spent up to now is      413.9 secs

     total energy              =    -731.00042457 Ry
     estimated scf accuracy    <       0.00019659 Ry

     iteration #  2     ecut=    60.00 Ry     beta= 0.70
     Davidson diagonalization with overlap
     ethr =  6.14E-07,  avg # of iterations =  4.1

     total cpu time spent up to now is      422.3 secs

     total energy              =    -731.00007457 Ry
     estimated scf accuracy    <       0.00592287 Ry

     iteration #  3     ecut=    60.00 Ry     beta= 0.70
     Davidson diagonalization with overlap
     ethr =  6.14E-07,  avg # of iterations =  4.0

     total cpu time spent up to now is      430.5 secs

     End of self-consistent calculation

     Number of k-points >= 100: set verbosity='high' to print the bands.

     the Fermi energy is    15.1969 ev

!    total energy              =    -731.00058318 Ry
     estimated scf accuracy    <       0.00000053 Ry

     convergence has been achieved in   3 iterations

     Forces acting on atoms (cartesian axes, Ry/au):

     atom    1 type  2   force =     0.00924902    0.00002550    0.00019061
     atom    2 type  1   force =    -0.00924902   -0.00002550   -0.00019061

     Total force =     0.013083     Total SCF correction =     0.003280
     SCF correction compared to forces is large: reduce conv_thr to get better values


     Computing stress (Cartesian axis) and pressure

          total   stress  (Ry/bohr**3)                   (kbar)     P=     -110.65
  -0.00100595   0.00000195  -0.00000060         -147.98        0.29       -0.09
   0.00000195  -0.00062949  -0.00000368            0.29      -92.60       -0.54
  -0.00000060  -0.00000368  -0.00062108           -0.09       -0.54      -91.36


     Entering Dynamics:    iteration =    15
                           time      =   0.0145 pico-seconds


ATOMIC_POSITIONS (angstrom)
Fe            0.0105790388        0.0016666947        0.0028245954
Se            1.5145189025        1.5208222188        1.5200032856


     kinetic energy (Ekin) =           0.00036302 Ry
     temperature           =          38.21104589 K 
     Ekin + Etot (const)   =        -731.00022016 Ry
     Ions kinetic stress =            0.18 (kbar)
                                      0.51           0.06           0.10
                                      0.06           0.01           0.01
                                      0.10           0.01           0.02



     Linear momentum :    0.0000000000   -0.0000000000    0.0000000000

     Writing config-only to output data dir ./work/try_3/calculation_try_3.save/
     NEW-OLD atomic charge density approx. for the potential

     Check: negative core charge=   -0.000007

     total cpu time spent up to now is      433.2 secs

     Self-consistent Calculation

     iteration #  1     ecut=    60.00 Ry     beta= 0.70
     Davidson diagonalization with overlap
     ethr =  1.00E-06,  avg # of iterations =  4.8

     Threshold (ethr) on eigenvalues was too large:
     Diagonalizing with lowered threshold

     Davidson diagonalization with overlap
     ethr =  5.80E-09,  avg # of iterations =  2.8

     total cpu time spent up to now is      450.2 secs

     End of self-consistent calculation

     Number of k-points >= 100: set verbosity='high' to print the bands.

     the Fermi energy is    15.1968 ev

!    total energy              =    -731.00060774 Ry
     estimated scf accuracy    <       0.00000185 Ry

     convergence has been achieved in   1 iterations

     Forces acting on atoms (cartesian axes, Ry/au):

     atom    1 type  2   force =     0.00840641   -0.00011445   -0.00004424
     atom    2 type  1   force =    -0.00840641    0.00011445    0.00004424

     Total force =     0.011890     Total SCF correction =     0.000851


     Computing stress (Cartesian axis) and pressure

          total   stress  (Ry/bohr**3)                   (kbar)     P=     -108.24
  -0.00098897   0.00000433   0.00000342         -145.48        0.64        0.50
   0.00000433  -0.00059998   0.00001424            0.64      -88.26        2.10
   0.00000342   0.00001424  -0.00061840            0.50        2.10      -90.97


     Entering Dynamics:    iteration =    16
                           time      =   0.0155 pico-seconds


ATOMIC_POSITIONS (angstrom)
Fe            0.0115756024        0.0017756209        0.0030141130
Se            1.5138140760        1.5207451800        1.5198692480


     kinetic energy (Ekin) =           0.00039041 Ry
     temperature           =          41.09417742 K 
     Ekin + Etot (const)   =        -731.00021733 Ry
     Ions kinetic stress =            0.19 (kbar)
                                      0.55           0.06           0.11
                                      0.06           0.01           0.01
                                      0.11           0.01           0.02



     Linear momentum :    0.0000000000   -0.0000000000    0.0000000000

     Writing config-only to output data dir ./work/try_3/calculation_try_3.save/
     NEW-OLD atomic charge density approx. for the potential

     Check: negative core charge=   -0.000007

     total cpu time spent up to now is      452.7 secs

     Self-consistent Calculation

     iteration #  1     ecut=    60.00 Ry     beta= 0.70
     Davidson diagonalization with overlap
     ethr =  1.00E-06,  avg # of iterations =  4.9

     Threshold (ethr) on eigenvalues was too large:
     Diagonalizing with lowered threshold

     Davidson diagonalization with overlap
     ethr =  2.78E-08,  avg # of iterations =  1.8

     total cpu time spent up to now is      468.4 secs

     End of self-consistent calculation

     Number of k-points >= 100: set verbosity='high' to print the bands.

     the Fermi energy is    15.2008 ev

!    total energy              =    -731.00063341 Ry
     estimated scf accuracy    <       0.00000905 Ry

     convergence has been achieved in   1 iterations

     Forces acting on atoms (cartesian axes, Ry/au):

     atom    1 type  2   force =     0.00865282   -0.00008176    0.00004051
     atom    2 type  1   force =    -0.00865282    0.00008176   -0.00004051

     Total force =     0.012238     Total SCF correction =     0.003163
     SCF correction compared to forces is large: reduce conv_thr to get better values


     Computing stress (Cartesian axis) and pressure

          total   stress  (Ry/bohr**3)                   (kbar)     P=     -119.47
  -0.00106289   0.00000060  -0.00000506         -156.36        0.09       -0.74
   0.00000060  -0.00070531  -0.00001571            0.09     -103.75       -2.31
  -0.00000506  -0.00001571  -0.00066830           -0.74       -2.31      -98.31


     Entering Dynamics:    iteration =    17
                           time      =   0.0164 pico-seconds


ATOMIC_POSITIONS (angstrom)
Fe            0.0126081496        0.0018842070        0.0032037990
Se            1.5130838000        1.5206683817        1.5197350912


     kinetic energy (Ekin) =           0.00041781 Ry
     temperature           =          43.97778408 K 
     Ekin + Etot (const)   =        -731.00021560 Ry
     Ions kinetic stress =            0.21 (kbar)
                                      0.59           0.06           0.11
                                      0.06           0.01           0.01
                                      0.11           0.01           0.02



     Linear momentum :    0.0000000000   -0.0000000000   -0.0000000000

     Writing config-only to output data dir ./work/try_3/calculation_try_3.save/
     NEW-OLD atomic charge density approx. for the potential

     Check: negative core charge=   -0.000007

     total cpu time spent up to now is      471.0 secs

     Self-consistent Calculation

     iteration #  1     ecut=    60.00 Ry     beta= 0.70
     Davidson diagonalization with overlap
     ethr =  1.00E-06,  avg # of iterations =  4.9

     total cpu time spent up to now is      480.7 secs

     total energy              =    -731.00041179 Ry
     estimated scf accuracy    <       0.00032677 Ry

     iteration #  2     ecut=    60.00 Ry     beta= 0.70
     Davidson diagonalization with overlap
     ethr =  1.02E-06,  avg # of iterations =  4.1

     total cpu time spent up to now is      489.5 secs

     total energy              =    -730.99983987 Ry
     estimated scf accuracy    <       0.00937025 Ry

     iteration #  3     ecut=    60.00 Ry     beta= 0.70
     Davidson diagonalization with overlap
     ethr =  1.02E-06,  avg # of iterations =  4.0

     total cpu time spent up to now is      497.8 secs

     total energy              =    -731.00066587 Ry
     estimated scf accuracy    <       0.00001259 Ry

     iteration #  4     ecut=    60.00 Ry     beta= 0.70
     Davidson diagonalization with overlap
     ethr =  3.93E-08,  avg # of iterations =  2.0

     total cpu time spent up to now is      504.0 secs

     End of self-consistent calculation

     Number of k-points >= 100: set verbosity='high' to print the bands.

     the Fermi energy is    15.1971 ev

!    total energy              =    -731.00066846 Ry
     estimated scf accuracy    <       0.00000020 Ry

     convergence has been achieved in   4 iterations

     Forces acting on atoms (cartesian axes, Ry/au):

     atom    1 type  2   force =     0.01019374    0.00010147    0.00031562
     atom    2 type  1   force =    -0.01019374   -0.00010147   -0.00031562

     Total force =     0.014424     Total SCF correction =     0.001668
     SCF correction compared to forces is large: reduce conv_thr to get better values


     Computing stress (Cartesian axis) and pressure

          total   stress  (Ry/bohr**3)                   (kbar)     P=     -109.57
  -0.00099705   0.00000138   0.00000137         -146.67        0.20        0.20
   0.00000138  -0.00061765  -0.00000004            0.20      -90.86       -0.01
   0.00000137  -0.00000004  -0.00061978            0.20       -0.01      -91.17


     Entering Dynamics:    iteration =    18
                           time      =   0.0174 pico-seconds


ATOMIC_POSITIONS (angstrom)
Fe            0.0136830885        0.0019932151        0.0033947976
Se            1.5123235421        1.5205912850        1.5196000062


     kinetic energy (Ekin) =           0.00044936 Ry
     temperature           =          47.29896274 K 
     Ekin + Etot (const)   =        -731.00021910 Ry
     Ions kinetic stress =            0.22 (kbar)
                                      0.63           0.07           0.11
                                      0.07           0.01           0.01
                                      0.11           0.01           0.02



     Linear momentum :    0.0000000000   -0.0000000000   -0.0000000000

     Writing config-only to output data dir ./work/try_3/calculation_try_3.save/
     NEW-OLD atomic charge density approx. for the potential

     Check: negative core charge=   -0.000007

     total cpu time spent up to now is      506.6 secs

     Self-consistent Calculation

     iteration #  1     ecut=    60.00 Ry     beta= 0.70
     Davidson diagonalization with overlap
     ethr =  1.00E-06,  avg # of iterations =  4.9

     Threshold (ethr) on eigenvalues was too large:
     Diagonalizing with lowered threshold

     Davidson diagonalization with overlap
     ethr =  5.31E-09,  avg # of iterations =  2.8

     total cpu time spent up to now is      523.7 secs

     End of self-consistent calculation

     Number of k-points >= 100: set verbosity='high' to print the bands.

     the Fermi energy is    15.1983 ev

!    total energy              =    -731.00069664 Ry
     estimated scf accuracy    <       0.00000173 Ry

     convergence has been achieved in   1 iterations

     Forces acting on atoms (cartesian axes, Ry/au):

     atom    1 type  2   force =     0.00835030   -0.00008179    0.00002377
     atom    2 type  1   force =    -0.00835030    0.00008179   -0.00002377

     Total force =     0.011810     Total SCF correction =     0.002277
     SCF correction compared to forces is large: reduce conv_thr to get better values


     Computing stress (Cartesian axis) and pressure

          total   stress  (Ry/bohr**3)                   (kbar)     P=     -111.34
  -0.00100290   0.00000646  -0.00000025         -147.53        0.95       -0.04
   0.00000646  -0.00063995   0.00001105            0.95      -94.14        1.63
  -0.00000025   0.00001105  -0.00062770           -0.04        1.63      -92.34


     Entering Dynamics:    iteration =    19
                           time      =   0.0184 pico-seconds


ATOMIC_POSITIONS (angstrom)
Fe            0.0147927529        0.0021018831        0.0035858950
Se            1.5115387243        1.5205144288        1.5194648512


     kinetic energy (Ekin) =           0.00048157 Ry
     temperature           =          50.68892092 K 
     Ekin + Etot (const)   =        -731.00021507 Ry
     Ions kinetic stress =            0.24 (kbar)
                                      0.68           0.07           0.12
                                      0.07           0.01           0.01
                                      0.12           0.01           0.02



     Linear momentum :    0.0000000000   -0.0000000000   -0.0000000000

     Writing config-only to output data dir ./work/try_3/calculation_try_3.save/
     NEW-OLD atomic charge density approx. for the potential

     Check: negative core charge=   -0.000007

     total cpu time spent up to now is      526.2 secs

     Self-consistent Calculation

     iteration #  1     ecut=    60.00 Ry     beta= 0.70
     Davidson diagonalization with overlap
     ethr =  1.00E-06,  avg # of iterations =  5.0

     Threshold (ethr) on eigenvalues was too large:
     Diagonalizing with lowered threshold

     Davidson diagonalization with overlap
     ethr =  9.09E-08,  avg # of iterations =  1.2

     total cpu time spent up to now is      541.3 secs

     total energy              =    -731.00070908 Ry
     estimated scf accuracy    <       0.00002959 Ry

     iteration #  2     ecut=    60.00 Ry     beta= 0.70
     Davidson diagonalization with overlap
     ethr =  9.25E-08,  avg # of iterations =  4.1

     total cpu time spent up to now is      549.6 secs

     total energy              =    -731.00066643 Ry
     estimated scf accuracy    <       0.00079881 Ry

     iteration #  3     ecut=    60.00 Ry     beta= 0.70
     Davidson diagonalization with overlap
     ethr =  9.25E-08,  avg # of iterations =  4.0

     total cpu time spent up to now is      557.8 secs

     End of self-consistent calculation

     Number of k-points >= 100: set verbosity='high' to print the bands.

     the Fermi energy is    15.1959 ev

!    total energy              =    -731.00072814 Ry
     estimated scf accuracy    <       0.00000368 Ry

     convergence has been achieved in   3 iterations

     Forces acting on atoms (cartesian axes, Ry/au):

     atom    1 type  2   force =     0.01036992    0.00005631    0.00033936
     atom    2 type  1   force =    -0.01036992   -0.00005631   -0.00033936

     Total force =     0.014673     Total SCF correction =     0.002250
     SCF correction compared to forces is large: reduce conv_thr to get better values


     Computing stress (Cartesian axis) and pressure

          total   stress  (Ry/bohr**3)                   (kbar)     P=     -106.93
  -0.00097305   0.00000962  -0.00000189         -143.14        1.41       -0.28
   0.00000962  -0.00062003   0.00001668            1.41      -91.21        2.45
  -0.00000189   0.00001668  -0.00058755           -0.28        2.45      -86.43


     Entering Dynamics:    iteration =    20
                           time      =   0.0194 pico-seconds


ATOMIC_POSITIONS (angstrom)
Fe            0.0159455416        0.0022107852        0.0037784037
Se            1.5107234066        1.5204374070        1.5193286981


     kinetic energy (Ekin) =           0.00051525 Ry
     temperature           =          54.23410053 K 
     Ekin + Etot (const)   =        -731.00021289 Ry
     Ions kinetic stress =            0.25 (kbar)
                                      0.73           0.07           0.12
                                      0.07           0.01           0.01
                                      0.12           0.01           0.02



     Linear momentum :    0.0000000000   -0.0000000000   -0.0000000000

     Writing config-only to output data dir ./work/try_3/calculation_try_3.save/
     NEW-OLD atomic charge density approx. for the potential

     Check: negative core charge=   -0.000007

     total cpu time spent up to now is      560.4 secs

     Self-consistent Calculation

     iteration #  1     ecut=    60.00 Ry     beta= 0.70
     Davidson diagonalization with overlap
     ethr =  1.00E-06,  avg # of iterations =  5.0

     total cpu time spent up to now is      570.0 secs

     total energy              =    -731.00073017 Ry
     estimated scf accuracy    <       0.00005864 Ry

     iteration #  2     ecut=    60.00 Ry     beta= 0.70
     Davidson diagonalization with overlap
     ethr =  1.83E-07,  avg # of iterations =  3.9

     total cpu time spent up to now is      578.5 secs

     total energy              =    -731.00060263 Ry
     estimated scf accuracy    <       0.00135006 Ry

     iteration #  3     ecut=    60.00 Ry     beta= 0.70
     Davidson diagonalization with overlap
     ethr =  1.83E-07,  avg # of iterations =  4.0

     total cpu time spent up to now is      586.5 secs

     total energy              =    -731.00076344 Ry
     estimated scf accuracy    <       0.00001761 Ry

     iteration #  4     ecut=    60.00 Ry     beta= 0.70
     Davidson diagonalization with overlap
     ethr =  5.50E-08,  avg # of iterations =  1.1

     total cpu time spent up to now is      592.1 secs

     End of self-consistent calculation

     Number of k-points >= 100: set verbosity='high' to print the bands.

     the Fermi energy is    15.1976 ev

!    total energy              =    -731.00076621 Ry
     estimated scf accuracy    <       0.00000034 Ry

     convergence has been achieved in   4 iterations

     Forces acting on atoms (cartesian axes, Ry/au):

     atom    1 type  2   force =     0.01070390    0.00011569    0.00036347
     atom    2 type  1   force =    -0.01070390   -0.00011569   -0.00036347

     Total force =     0.015147     Total SCF correction =     0.001762
     SCF correction compared to forces is large: reduce conv_thr to get better values


     Computing stress (Cartesian axis) and pressure

          total   stress  (Ry/bohr**3)                   (kbar)     P=     -110.23
  -0.00099615   0.00000498   0.00000170         -146.54        0.73        0.25
   0.00000498  -0.00062436   0.00000887            0.73      -91.85        1.30
   0.00000170   0.00000887  -0.00062744            0.25        1.30      -92.30


     Entering Dynamics:    iteration =    21
                           time      =   0.0203 pico-seconds


ATOMIC_POSITIONS (angstrom)
Fe            0.0171428436        0.0023201685        0.0039724239
Se            1.5098766067        1.5203600450        1.5191914760


     kinetic energy (Ekin) =           0.00055470 Ry
     temperature           =          58.38643840 K 
     Ekin + Etot (const)   =        -731.00021151 Ry
     Ions kinetic stress =            0.27 (kbar)
                                      0.79           0.07           0.13
                                      0.07           0.01           0.01
                                      0.13           0.01           0.02



     Linear momentum :    0.0000000000   -0.0000000000   -0.0000000000

     Writing config-only to output data dir ./work/try_3/calculation_try_3.save/
     NEW-OLD atomic charge density approx. for the potential

     Check: negative core charge=   -0.000007

     total cpu time spent up to now is      594.7 secs

     Self-consistent Calculation

     iteration #  1     ecut=    60.00 Ry     beta= 0.70
     Davidson diagonalization with overlap
     ethr =  1.00E-06,  avg # of iterations =  5.0

     Threshold (ethr) on eigenvalues was too large:
     Diagonalizing with lowered threshold

     Davidson diagonalization with overlap
     ethr =  1.52E-08,  avg # of iterations =  2.3

     total cpu time spent up to now is      610.7 secs

     End of self-consistent calculation

     Number of k-points >= 100: set verbosity='high' to print the bands.

     the Fermi energy is    15.1951 ev

!    total energy              =    -731.00079852 Ry
     estimated scf accuracy    <       0.00000491 Ry

     convergence has been achieved in   1 iterations

     Forces acting on atoms (cartesian axes, Ry/au):

     atom    1 type  2   force =     0.00833199   -0.00005133    0.00002079
     atom    2 type  1   force =    -0.00833199    0.00005133   -0.00002079

     Total force =     0.011783     Total SCF correction =     0.002692
     SCF correction compared to forces is large: reduce conv_thr to get better values


     Computing stress (Cartesian axis) and pressure

          total   stress  (Ry/bohr**3)                   (kbar)     P=     -100.52
  -0.00092791   0.00000081  -0.00000149         -136.50        0.12       -0.22
   0.00000081  -0.00057133  -0.00001126            0.12      -84.05       -1.66
  -0.00000149  -0.00001126  -0.00055075           -0.22       -1.66      -81.02


     Entering Dynamics:    iteration =    22
                           time      =   0.0213 pico-seconds


ATOMIC_POSITIONS (angstrom)
Fe            0.0183747949        0.0024293383        0.0041665305
Se            1.5090053007        1.5202828339        1.5190541928


     kinetic energy (Ekin) =           0.00059152 Ry
     temperature           =          62.26220967 K 
     Ekin + Etot (const)   =        -731.00020700 Ry
     Ions kinetic stress =            0.29 (kbar)
                                      0.84           0.08           0.13
                                      0.08           0.01           0.01
                                      0.13           0.01           0.02



     Linear momentum :    0.0000000000   -0.0000000000   -0.0000000000

     Writing config-only to output data dir ./work/try_3/calculation_try_3.save/
     NEW-OLD atomic charge density approx. for the potential

     Check: negative core charge=   -0.000007

     total cpu time spent up to now is      613.3 secs

     Self-consistent Calculation

     iteration #  1     ecut=    60.00 Ry     beta= 0.70
     Davidson diagonalization with overlap
     ethr =  1.00E-06,  avg # of iterations =  5.0

     total cpu time spent up to now is      623.1 secs

     total energy              =    -731.00073376 Ry
     estimated scf accuracy    <       0.00014699 Ry

     iteration #  2     ecut=    60.00 Ry     beta= 0.70
     Davidson diagonalization with overlap
     ethr =  4.59E-07,  avg # of iterations =  4.0

     total cpu time spent up to now is      631.6 secs

     total energy              =    -731.00039843 Ry
     estimated scf accuracy    <       0.00425021 Ry

     iteration #  3     ecut=    60.00 Ry     beta= 0.70
     Davidson diagonalization with overlap
     ethr =  4.59E-07,  avg # of iterations =  4.0

     total cpu time spent up to now is      640.0 secs

     End of self-consistent calculation

     Number of k-points >= 100: set verbosity='high' to print the bands.

     the Fermi energy is    15.1997 ev

!    total energy              =    -731.00083604 Ry
     estimated scf accuracy    <       0.00000916 Ry

     convergence has been achieved in   3 iterations

     Forces acting on atoms (cartesian axes, Ry/au):

     atom    1 type  2   force =     0.01037158    0.00009830    0.00033444
     atom    2 type  1   force =    -0.01037158   -0.00009830   -0.00033444

     Total force =     0.014676     Total SCF correction =     0.003642
     SCF correction compared to forces is large: reduce conv_thr to get better values


     Computing stress (Cartesian axis) and pressure

          total   stress  (Ry/bohr**3)                   (kbar)     P=     -112.67
  -0.00100768   0.00000107  -0.00000452         -148.23        0.16       -0.67
   0.00000107  -0.00067249  -0.00001763            0.16      -98.93       -2.59
  -0.00000452  -0.00001763  -0.00061758           -0.67       -2.59      -90.85


     Entering Dynamics:    iteration =    23
                           time      =   0.0223 pico-seconds


ATOMIC_POSITIONS (angstrom)
Fe            0.0196498774        0.0025389168        0.0043620280
Se            1.5081034898        1.5202053337        1.5189159259


     kinetic energy (Ekin) =           0.00062887 Ry
     temperature           =          66.19393441 K 
     Ekin + Etot (const)   =        -731.00020717 Ry
     Ions kinetic stress =            0.31 (kbar)
                                      0.90           0.08           0.14
                                      0.08           0.01           0.01
                                      0.14           0.01           0.02



     Linear momentum :    0.0000000000   -0.0000000000   -0.0000000000

     Writing config-only to output data dir ./work/try_3/calculation_try_3.save/
     NEW-OLD atomic charge density approx. for the potential

     Check: negative core charge=   -0.000007

     total cpu time spent up to now is      642.6 secs

     Self-consistent Calculation

     iteration #  1     ecut=    60.00 Ry     beta= 0.70
     Davidson diagonalization with overlap
     ethr =  1.00E-06,  avg # of iterations =  5.0

     total cpu time spent up to now is      652.6 secs

     total energy              =    -731.00078703 Ry
     estimated scf accuracy    <       0.00012665 Ry

     iteration #  2     ecut=    60.00 Ry     beta= 0.70
     Davidson diagonalization with overlap
     ethr =  3.96E-07,  avg # of iterations =  4.0

     total cpu time spent up to now is      660.8 secs

     total energy              =    -731.00061881 Ry
     estimated scf accuracy    <       0.00271321 Ry

     iteration #  3     ecut=    60.00 Ry     beta= 0.70
     Davidson diagonalization with overlap
     ethr =  3.96E-07,  avg # of iterations =  4.0

     total cpu time spent up to now is      669.0 secs

     total energy              =    -731.00087067 Ry
     estimated scf accuracy    <       0.00004851 Ry

     iteration #  4     ecut=    60.00 Ry     beta= 0.70
     Davidson diagonalization with overlap
     ethr =  1.52E-07,  avg # of iterations =  1.1

     total cpu time spent up to now is      674.6 secs

     End of self-consistent calculation

     Number of k-points >= 100: set verbosity='high' to print the bands.

     the Fermi energy is    15.1974 ev

!    total energy              =    -731.00087991 Ry
     estimated scf accuracy    <       0.00000023 Ry

     convergence has been achieved in   4 iterations

     Forces acting on atoms (cartesian axes, Ry/au):

     atom    1 type  2   force =     0.01111244    0.00013531    0.00039192
     atom    2 type  1   force =    -0.01111244   -0.00013531   -0.00039192

     Total force =     0.015726     Total SCF correction =     0.001981
     SCF correction compared to forces is large: reduce conv_thr to get better values


     Computing stress (Cartesian axis) and pressure

          total   stress  (Ry/bohr**3)                   (kbar)     P=     -108.87
  -0.00098172   0.00000310   0.00000183         -144.42        0.46        0.27
   0.00000310  -0.00061929   0.00000220            0.46      -91.10        0.32
   0.00000183   0.00000220  -0.00061923            0.27        0.32      -91.09


     Entering Dynamics:    iteration =    24
                           time      =   0.0232 pico-seconds


ATOMIC_POSITIONS (angstrom)
Fe            0.0209711720        0.0026490582        0.0045591552
Se            1.5071689952        1.5201274355        1.5187765063


     kinetic energy (Ekin) =           0.00067336 Ry
     temperature           =          70.87655051 K 
     Ekin + Etot (const)   =        -731.00020655 Ry
     Ions kinetic stress =            0.33 (kbar)
                                      0.96           0.08           0.15
                                      0.08           0.01           0.01
                                      0.15           0.01           0.02



     Linear momentum :    0.0000000000    0.0000000000    0.0000000000

     Writing config-only to output data dir ./work/try_3/calculation_try_3.save/
     NEW-OLD atomic charge density approx. for the potential

     Check: negative core charge=   -0.000007

     total cpu time spent up to now is      677.4 secs

     Self-consistent Calculation

     iteration #  1     ecut=    60.00 Ry     beta= 0.70
     Davidson diagonalization with overlap
     ethr =  1.00E-06,  avg # of iterations =  5.0

     Threshold (ethr) on eigenvalues was too large:
     Diagonalizing with lowered threshold

     Davidson diagonalization with overlap
     ethr =  1.66E-08,  avg # of iterations =  2.3

     total cpu time spent up to now is      694.4 secs

     End of self-consistent calculation

     Number of k-points >= 100: set verbosity='high' to print the bands.

     the Fermi energy is    15.2007 ev

!    total energy              =    -731.00091721 Ry
     estimated scf accuracy    <       0.00000552 Ry

     convergence has been achieved in   1 iterations

     Forces acting on atoms (cartesian axes, Ry/au):

     atom    1 type  2   force =     0.00880465   -0.00007951    0.00007140
     atom    2 type  1   force =    -0.00880465    0.00007951   -0.00007140

     Total force =     0.012453     Total SCF correction =     0.002290
     SCF correction compared to forces is large: reduce conv_thr to get better values


     Computing stress (Cartesian axis) and pressure

          total   stress  (Ry/bohr**3)                   (kbar)     P=     -114.85
  -0.00102054   0.00000449   0.00000136         -150.13        0.66        0.20
   0.00000449  -0.00067053   0.00000664            0.66      -98.64        0.98
   0.00000136   0.00000664  -0.00065120            0.20        0.98      -95.79


     Entering Dynamics:    iteration =    25
                           time      =   0.0242 pico-seconds


ATOMIC_POSITIONS (angstrom)
Fe            0.0223290817        0.0027588688        0.0047565794
Se            1.5062086043        1.5200497712        1.5186368767


     kinetic energy (Ekin) =           0.00071589 Ry
     temperature           =          75.35333580 K 
     Ekin + Etot (const)   =        -731.00020132 Ry
     Ions kinetic stress =            0.35 (kbar)
                                      1.03           0.08           0.15
                                      0.08           0.01           0.01
                                      0.15           0.01           0.02



     Linear momentum :    0.0000000000    0.0000000000    0.0000000000

     Writing config-only to output data dir ./work/try_3/calculation_try_3.save/
     NEW-OLD atomic charge density approx. for the potential

     Check: negative core charge=   -0.000007

     total cpu time spent up to now is      697.0 secs

     Self-consistent Calculation

     iteration #  1     ecut=    60.00 Ry     beta= 0.70
     Davidson diagonalization with overlap
     ethr =  1.00E-06,  avg # of iterations =  5.0

     total cpu time spent up to now is      706.8 secs

     total energy              =    -731.00075965 Ry
     estimated scf accuracy    <       0.00025879 Ry

     iteration #  2     ecut=    60.00 Ry     beta= 0.70
     Davidson diagonalization with overlap
     ethr =  8.09E-07,  avg # of iterations =  4.1

     total cpu time spent up to now is      715.4 secs

     total energy              =    -731.00029849 Ry
     estimated scf accuracy    <       0.00770575 Ry

     iteration #  3     ecut=    60.00 Ry     beta= 0.70
     Davidson diagonalization with overlap
     ethr =  8.09E-07,  avg # of iterations =  4.0

     total cpu time spent up to now is      724.1 secs

     End of self-consistent calculation

     Number of k-points >= 100: set verbosity='high' to print the bands.

     the Fermi energy is    15.1967 ev

!    total energy              =    -731.00096067 Ry
     estimated scf accuracy    <       0.00000575 Ry

     convergence has been achieved in   3 iterations

     Forces acting on atoms (cartesian axes, Ry/au):

     atom    1 type  2   force =     0.01077171    0.00007600    0.00032225
     atom    2 type  1   force =    -0.01077171   -0.00007600   -0.00032225

     Total force =     0.015241     Total SCF correction =     0.003987
     SCF correction compared to forces is large: reduce conv_thr to get better values


     Computing stress (Cartesian axis) and pressure

          total   stress  (Ry/bohr**3)                   (kbar)     P=     -107.97
  -0.00097192   0.00000587   0.00000018         -142.97        0.86        0.03
   0.00000587  -0.00064225   0.00001023            0.86      -94.48        1.51
   0.00000018   0.00001023  -0.00058765            0.03        1.51      -86.45


     Entering Dynamics:    iteration =    26
                           time      =   0.0252 pico-seconds


ATOMIC_POSITIONS (angstrom)
Fe            0.0237317865        0.0028689955        0.0049553437
Se            1.5052165317        1.5199718833        1.5184962993


     kinetic energy (Ekin) =           0.00075896 Ry
     temperature           =          79.88692192 K 
     Ekin + Etot (const)   =        -731.00020171 Ry
     Ions kinetic stress =            0.37 (kbar)
                                      1.09           0.09           0.16
                                      0.09           0.01           0.01
                                      0.16           0.01           0.02



     Linear momentum :    0.0000000000   -0.0000000000   -0.0000000000

     Writing config-only to output data dir ./work/try_3/calculation_try_3.save/
     NEW-OLD atomic charge density approx. for the potential

     Check: negative core charge=   -0.000007

     total cpu time spent up to now is      726.9 secs

     Self-consistent Calculation

     iteration #  1     ecut=    60.00 Ry     beta= 0.70
     Davidson diagonalization with overlap
     ethr =  1.00E-06,  avg # of iterations =  5.0

     total cpu time spent up to now is      737.0 secs

     total energy              =    -731.00099119 Ry
     estimated scf accuracy    <       0.00003606 Ry

     iteration #  2     ecut=    60.00 Ry     beta= 0.70
     Davidson diagonalization with overlap
     ethr =  1.13E-07,  avg # of iterations =  2.2

     total cpu time spent up to now is      744.3 secs

     total energy              =    -731.00097069 Ry
     estimated scf accuracy    <       0.00016761 Ry

     iteration #  3     ecut=    60.00 Ry     beta= 0.70
     Davidson diagonalization with overlap
     ethr =  1.13E-07,  avg # of iterations =  3.2

     total cpu time spent up to now is      751.8 secs

     total energy              =    -731.00100435 Ry
     estimated scf accuracy    <       0.00010282 Ry

     iteration #  4     ecut=    60.00 Ry     beta= 0.70
     Davidson diagonalization with overlap
     ethr =  1.13E-07,  avg # of iterations =  2.0

     total cpu time spent up to now is      758.4 secs

     End of self-consistent calculation

     Number of k-points >= 100: set verbosity='high' to print the bands.

     the Fermi energy is    15.1975 ev

!    total energy              =    -731.00101022 Ry
     estimated scf accuracy    <       0.00000024 Ry

     convergence has been achieved in   4 iterations

     Forces acting on atoms (cartesian axes, Ry/au):

     atom    1 type  2   force =     0.01167415    0.00011129    0.00045638
     atom    2 type  1   force =    -0.01167415   -0.00011129   -0.00045638

     Total force =     0.016523     Total SCF correction =     0.002190
     SCF correction compared to forces is large: reduce conv_thr to get better values


     Computing stress (Cartesian axis) and pressure

          total   stress  (Ry/bohr**3)                   (kbar)     P=     -111.30
  -0.00099292   0.00000454   0.00000247         -146.06        0.67        0.36
   0.00000454  -0.00064174   0.00000767            0.67      -94.40        1.13
   0.00000247   0.00000767  -0.00063521            0.36        1.13      -93.44


     Entering Dynamics:    iteration =    27
                           time      =   0.0261 pico-seconds


ATOMIC_POSITIONS (angstrom)
Fe            0.0251830394        0.0029795851        0.0051560058
Se            1.5041901232        1.5198936681        1.5183543796


     kinetic energy (Ekin) =           0.00081007 Ry
     temperature           =          85.26627118 K 
     Ekin + Etot (const)   =        -731.00020016 Ry
     Ions kinetic stress =            0.40 (kbar)
                                      1.16           0.09           0.16
                                      0.09           0.01           0.01
                                      0.16           0.01           0.02



     Linear momentum :    0.0000000000   -0.0000000000   -0.0000000000

     Writing config-only to output data dir ./work/try_3/calculation_try_3.save/
     NEW-OLD atomic charge density approx. for the potential

     Check: negative core charge=   -0.000007

     total cpu time spent up to now is      760.9 secs

     Self-consistent Calculation

     iteration #  1     ecut=    60.00 Ry     beta= 0.70
     Davidson diagonalization with overlap
     ethr =  1.00E-06,  avg # of iterations =  5.0

     Threshold (ethr) on eigenvalues was too large:
     Diagonalizing with lowered threshold

     Davidson diagonalization with overlap
     ethr =  2.34E-08,  avg # of iterations =  2.2

     total cpu time spent up to now is      777.3 secs

     End of self-consistent calculation

     Number of k-points >= 100: set verbosity='high' to print the bands.

     the Fermi energy is    15.1934 ev

!    total energy              =    -731.00105057 Ry
     estimated scf accuracy    <       0.00000759 Ry

     convergence has been achieved in   1 iterations

     Forces acting on atoms (cartesian axes, Ry/au):

     atom    1 type  2   force =     0.00882266   -0.00015257    0.00014505
     atom    2 type  1   force =    -0.00882266    0.00015257   -0.00014505

     Total force =     0.012481     Total SCF correction =     0.003129
     SCF correction compared to forces is large: reduce conv_thr to get better values


     Computing stress (Cartesian axis) and pressure

          total   stress  (Ry/bohr**3)                   (kbar)     P=      -91.27
  -0.00085397   0.00000213   0.00000290         -125.62        0.31        0.43
   0.00000213  -0.00050113  -0.00000162            0.31      -73.72       -0.24
   0.00000290  -0.00000162  -0.00050630            0.43       -0.24      -74.48


     Entering Dynamics:    iteration =    28
                           time      =   0.0271 pico-seconds


ATOMIC_POSITIONS (angstrom)
Fe            0.0266709821        0.0030895401        0.0053572712
Se            1.5031377655        1.5198159016        1.5182120333


     kinetic energy (Ekin) =           0.00085814 Ry
     temperature           =          90.32636413 K 
     Ekin + Etot (const)   =        -731.00019243 Ry
     Ions kinetic stress =            0.42 (kbar)
                                      1.23           0.09           0.17
                                      0.09           0.01           0.01
                                      0.17           0.01           0.02



     Linear momentum :   -0.0000000000    0.0000000000   -0.0000000000

     Writing config-only to output data dir ./work/try_3/calculation_try_3.save/
     NEW-OLD atomic charge density approx. for the potential

     Check: negative core charge=   -0.000007

     total cpu time spent up to now is      780.0 secs

     Self-consistent Calculation

     iteration #  1     ecut=    60.00 Ry     beta= 0.70
     Davidson diagonalization with overlap
     ethr =  1.00E-06,  avg # of iterations =  5.0

     total cpu time spent up to now is      790.7 secs

     total energy              =    -731.00079890 Ry
     estimated scf accuracy    <       0.00041681 Ry

     iteration #  2     ecut=    60.00 Ry     beta= 0.70
     Davidson diagonalization with overlap
     ethr =  1.30E-06,  avg # of iterations =  4.2

     total cpu time spent up to now is      800.4 secs

     total energy              =    -730.99984162 Ry
     estimated scf accuracy    <       0.01302453 Ry

     iteration #  3     ecut=    60.00 Ry     beta= 0.70
     Davidson diagonalization with overlap
     ethr =  1.30E-06,  avg # of iterations =  4.0

     total cpu time spent up to now is      809.1 secs

     End of self-consistent calculation

     Number of k-points >= 100: set verbosity='high' to print the bands.

     the Fermi energy is    15.1986 ev

!    total energy              =    -731.00110622 Ry
     estimated scf accuracy    <       0.00000320 Ry

     convergence has been achieved in   3 iterations

     Forces acting on atoms (cartesian axes, Ry/au):

     atom    1 type  2   force =     0.01145705    0.00000559    0.00053733
     atom    2 type  1   force =    -0.01145705   -0.00000559   -0.00053733

     Total force =     0.016221     Total SCF correction =     0.003931
     SCF correction compared to forces is large: reduce conv_thr to get better values


     Computing stress (Cartesian axis) and pressure

          total   stress  (Ry/bohr**3)                   (kbar)     P=     -104.80
  -0.00094234   0.00000018   0.00000438         -138.62        0.03        0.64
   0.00000018  -0.00058210  -0.00001082            0.03      -85.63       -1.59
   0.00000438  -0.00001082  -0.00061281            0.64       -1.59      -90.15


     Entering Dynamics:    iteration =    29
                           time      =   0.0281 pico-seconds


ATOMIC_POSITIONS (angstrom)
Fe            0.0282065702        0.0031995184        0.0055607711
Se            1.5020517103        1.5197381187        1.5180681066


     kinetic energy (Ekin) =           0.00090710 Ry
     temperature           =          95.47998006 K 
     Ekin + Etot (const)   =        -731.00019912 Ry
     Ions kinetic stress =            0.45 (kbar)
                                      1.31           0.09           0.17
                                      0.09           0.01           0.01
                                      0.17           0.01           0.02



     Linear momentum :   -0.0000000000    0.0000000000    0.0000000000

     Writing config-only to output data dir ./work/try_3/calculation_try_3.save/
     NEW-OLD atomic charge density approx. for the potential

     Check: negative core charge=   -0.000007

     total cpu time spent up to now is      811.7 secs

     Self-consistent Calculation

     iteration #  1     ecut=    60.00 Ry     beta= 0.70
     Davidson diagonalization with overlap
     ethr =  1.00E-06,  avg # of iterations =  5.0

     Threshold (ethr) on eigenvalues was too large:
     Diagonalizing with lowered threshold

     Davidson diagonalization with overlap
     ethr =  7.05E-08,  avg # of iterations =  1.3

     total cpu time spent up to now is      828.3 secs

     total energy              =    -731.00114445 Ry
     estimated scf accuracy    <       0.00002256 Ry

     iteration #  2     ecut=    60.00 Ry     beta= 0.70
     Davidson diagonalization with overlap
     ethr =  7.05E-08,  avg # of iterations =  2.7

     total cpu time spent up to now is      835.8 secs

     total energy              =    -731.00113696 Ry
     estimated scf accuracy    <       0.00016665 Ry

     iteration #  3     ecut=    60.00 Ry     beta= 0.70
     Davidson diagonalization with overlap
     ethr =  7.05E-08,  avg # of iterations =  3.5

     total cpu time spent up to now is      843.4 secs

     total energy              =    -731.00115118 Ry
     estimated scf accuracy    <       0.00005375 Ry

     iteration #  4     ecut=    60.00 Ry     beta= 0.70
     Davidson diagonalization with overlap
     ethr =  7.05E-08,  avg # of iterations =  2.0

     total cpu time spent up to now is      849.7 secs

     End of self-consistent calculation

     Number of k-points >= 100: set verbosity='high' to print the bands.

     the Fermi energy is    15.1979 ev

!    total energy              =    -731.00116022 Ry
     estimated scf accuracy    <       0.00000032 Ry

     convergence has been achieved in   4 iterations

     Forces acting on atoms (cartesian axes, Ry/au):

     atom    1 type  2   force =     0.01254861    0.00011646    0.00052103
     atom    2 type  1   force =    -0.01254861   -0.00011646   -0.00052103

     Total force =     0.017762     Total SCF correction =     0.001948
     SCF correction compared to forces is large: reduce conv_thr to get better values


     Computing stress (Cartesian axis) and pressure

          total   stress  (Ry/bohr**3)                   (kbar)     P=     -106.82
  -0.00095367   0.00000402   0.00000340         -140.29        0.59        0.50
   0.00000402  -0.00061458   0.00000197            0.59      -90.41        0.29
   0.00000340   0.00000197  -0.00061027            0.50        0.29      -89.77


     Entering Dynamics:    iteration =    30
                           time      =   0.0290 pico-seconds


ATOMIC_POSITIONS (angstrom)
Fe            0.0297943429        0.0033099810        0.0057664378
Se            1.5009287473        1.5196599933        1.5179226474


     kinetic energy (Ekin) =           0.00096698 Ry
     temperature           =         101.78256693 K 
     Ekin + Etot (const)   =        -731.00019324 Ry
     Ions kinetic stress =            0.47 (kbar)
                                      1.39           0.10           0.18
                                      0.10           0.01           0.01
                                      0.18           0.01           0.02



     Linear momentum :   -0.0000000000    0.0000000000    0.0000000000

     The maximum number of steps has been reached.

     End of molecular dynamics calculation

     diffusion coefficients :
     atom     1   D =       0.00000054 cm^2/s
     atom     2   D =       0.00000027 cm^2/s

     < D > =       0.00000040 cm^2/s

     Writing all to output data dir ./work/try_3/calculation_try_3.save/

     init_run     :      2.62s CPU      2.74s WALL (       1 calls)
     electrons    :    720.25s CPU    770.74s WALL (      30 calls)
     update_pot   :      4.65s CPU      4.77s WALL (      29 calls)
     forces       :     10.83s CPU     12.21s WALL (      30 calls)
     stress       :     49.65s CPU     51.13s WALL (      30 calls)

     Called by init_run:
     wfcinit      :      2.06s CPU      2.16s WALL (       1 calls)
     potinit      :      0.14s CPU      0.15s WALL (       1 calls)
     hinit0       :      0.36s CPU      0.37s WALL (       1 calls)

     Called by electrons:
     c_bands      :    611.97s CPU    658.08s WALL (      94 calls)
     sum_band     :     96.19s CPU     99.92s WALL (      94 calls)
     v_of_rho     :      0.64s CPU      0.67s WALL (     110 calls)
     newd         :      1.54s CPU      2.01s WALL (     110 calls)
     PAW_pot      :     17.93s CPU     18.38s WALL (     139 calls)
     mix_rho      :      0.04s CPU      0.04s WALL (      94 calls)

     Called by c_bands:
     init_us_2    :     15.89s CPU     17.36s WALL (   72280 calls)
     init_us_2:cp :     15.83s CPU     17.30s WALL (   72280 calls)
     cegterg      :    588.44s CPU    633.21s WALL (   24440 calls)

     Called by *egterg:
     cdiaghg      :     33.12s CPU     34.62s WALL (  101429 calls)
     h_psi        :    462.92s CPU    480.92s WALL (  112869 calls)
     s_psi        :     14.71s CPU     18.80s WALL (  112869 calls)
     g_psi        :      1.56s CPU      1.61s WALL (   88169 calls)

     Called by h_psi:
     h_psi:calbec :     17.61s CPU     24.99s WALL (  112869 calls)
     vloc_psi     :    426.77s CPU    433.22s WALL (  112869 calls)
     add_vuspsi   :     17.06s CPU     20.40s WALL (  112869 calls)

     General routines
     calbec       :     31.75s CPU     43.08s WALL (  183849 calls)
     fft          :      0.52s CPU      0.53s WALL (    2003 calls)
     ffts         :      0.02s CPU      0.02s WALL (      94 calls)
     fftw         :    460.06s CPU    466.49s WALL ( 3183006 calls)

     Parallel routines

     PWSCF        :  13m17.51s CPU  14m12.15s WALL


   This run was terminated on:  18:11:19  30Dec2024            

=------------------------------------------------------------------------------=
   JOB DONE.
=------------------------------------------------------------------------------=
