
     Program PWSCF v.7.1 starts on 30Dec2024 at 18:37:39 

     This program is part of the open-source Quantum ESPRESSO suite
     for quantum simulation of materials; please cite
         "P. Giannozzi et al., J. Phys.:Condens. Matter 21 395502 (2009);
         "P. Giannozzi et al., J. Phys.:Condens. Matter 29 465901 (2017);
         "P. Giannozzi et al., J. Chem. Phys. 152 154105 (2020);
          URL http://www.quantum-espresso.org", 
     in publications or presentations arising from this work. More details at
     http://www.quantum-espresso.org/quote

     Parallel version (MPI), running on     1 processors

     MPI processes distributed on     1 nodes
     0 MiB available memory on the printing compute node when the environment starts

     Waiting for input...
     Reading input from standard input
Warning: card &CELL ignored
Warning: card / ignored

     Current dimensions of program PWSCF are:
     Max number of different atomic species (ntypx) = 10
     Max number of k-points (npk) =  40000
     Max angular momentum in pseudopotentials (lmaxx) =  4
     Message from routine iosys:
     BEWARE:  force calculation with tetrahedra (not recommanded)
     Message from routine iosys:
     BEWARE: stress calculation with tetrahedra (not recommanded)
     file Se.pbe-dn-kjpaw_psl.1.0.0.UPF: wavefunction(s)  4S 4P 3D renormalized
     file Fe.pbe-spn-kjpaw_psl.1.0.0.UPF: wavefunction(s)  3P 3D renormalized

     Subspace diagonalization in iterative solution of the eigenvalue problem:
     a serial algorithm will be used


     G-vector sticks info
     --------------------
     sticks:   dense  smooth     PW     G-vecs:    dense   smooth      PW
     Sum         699     699    215                13159    13159    2273

     Using Slab Decomposition



     bravais-lattice index     =            0
     lattice parameter (alat)  =       6.3192  a.u.
     unit-cell volume          =     209.0995 (a.u.)^3
     number of atoms/cell      =            2
     number of atomic types    =            2
     number of electrons       =        32.00
     number of Kohn-Sham states=           20
     kinetic-energy cutoff     =      60.0000  Ry
     charge density cutoff     =     240.0000  Ry
     scf convergence threshold =      1.0E-05
     mixing beta               =       0.7000
     number of iterations used =            8  plain     mixing
     energy convergence thresh.=      0.0E+00
     force convergence thresh. =      0.0E+00
     Exchange-correlation= SLA  PW   PBX  PBC
                           (   1   4   3   4   0   0   0)
     nstep                     =           30


     celldm(1)=   6.319248  celldm(2)=   0.000000  celldm(3)=   0.000000
     celldm(4)=   0.000000  celldm(5)=   0.000000  celldm(6)=   0.000000

     crystal axes: (cart. coord. in units of alat)
               a(1) = (   1.000000   0.000000   0.000000 )  
               a(2) = (  -0.000000   0.910287   0.000000 )  
               a(3) = (   0.000000   0.000000   0.910287 )  

     reciprocal axes: (cart. coord. in units 2 pi/alat)
               b(1) = (  1.000000  0.000000 -0.000000 )  
               b(2) = (  0.000000  1.098554  0.000000 )  
               b(3) = (  0.000000 -0.000000  1.098554 )  


     PseudoPot. # 1 for Se read from file:
     ./pseudo/Se.pbe-dn-kjpaw_psl.1.0.0.UPF
     MD5 check sum: ac240dd2bae32a30e0bf3a38df9c8785
     Pseudo is Projector augmented-wave + core cor, Zval = 16.0
     Generated using &quot;atomic&quot; code by A. Dal Corso  v.6.3
     Shape of augmentation charge: PSQ
     Using radial grid of 1211 points,  6 beta functions with: 
                l(1) =   0
                l(2) =   0
                l(3) =   1
                l(4) =   1
                l(5) =   2
                l(6) =   2
     Q(r) pseudized with 0 coefficients 


     PseudoPot. # 2 for Fe read from file:
     ./pseudo/Fe.pbe-spn-kjpaw_psl.1.0.0.UPF
     MD5 check sum: fc81f059e5c5069939230b1155715ae8
     Pseudo is Projector augmented-wave + core cor, Zval = 16.0
     Generated using &quot;atomic&quot; code by A. Dal Corso  v.6.3
     Shape of augmentation charge: PSQ
     Using radial grid of 1191 points,  6 beta functions with: 
                l(1) =   0
                l(2) =   0
                l(3) =   1
                l(4) =   1
                l(5) =   2
                l(6) =   2
     Q(r) pseudized with 0 coefficients 


     atomic species   valence    mass     pseudopotential
        Se            16.00    78.96000     Se( 1.00)
        Fe            16.00    55.84500     Fe( 1.00)

     No symmetry found



   Cartesian axes

     site n.     atom                  positions (alat units)
         1           Fe  tau(   1) = (   0.0000000   0.0000000   0.0000000  )
         2           Se  tau(   2) = (   0.4551436   0.4551436   0.4551436  )

     number of k points=   260 (tetrahedron method)

     Number of k-points >= 100: set verbosity='high' to print them.

     Dense  grid:    13159 G-vectors     FFT dimensions: (  32,  30,  30)

     Estimated max dynamical RAM per process >     182.31 MB

     Check: negative core charge=   -0.000007

     Initial potential from superposition of free atoms

     starting charge      31.9995, renormalised to      32.0000
     Starting wfcs are   19 randomized atomic wfcs +    1 random wfcs
     Checking if some PAW data can be deallocated... 

     total cpu time spent up to now is        2.5 secs

     Self-consistent Calculation

     iteration #  1     ecut=    60.00 Ry     beta= 0.70
     Davidson diagonalization with overlap
     ethr =  1.00E-02,  avg # of iterations =  3.2

     total cpu time spent up to now is        8.9 secs

     total energy              =    -730.35275081 Ry
     estimated scf accuracy    <       0.83179814 Ry

     iteration #  2     ecut=    60.00 Ry     beta= 0.70
     Davidson diagonalization with overlap
     ethr =  2.60E-03,  avg # of iterations =  5.2

     total cpu time spent up to now is       17.2 secs

     total energy              =    -729.62269664 Ry
     estimated scf accuracy    <      15.46749241 Ry

     iteration #  3     ecut=    60.00 Ry     beta= 0.70
     Davidson diagonalization with overlap
     ethr =  2.60E-03,  avg # of iterations =  4.4

     total cpu time spent up to now is       25.2 secs

     total energy              =    -730.98203005 Ry
     estimated scf accuracy    <       0.10155355 Ry

     iteration #  4     ecut=    60.00 Ry     beta= 0.70
     Davidson diagonalization with overlap
     ethr =  3.17E-04,  avg # of iterations =  2.3

     total cpu time spent up to now is       30.9 secs

     total energy              =    -730.99122862 Ry
     estimated scf accuracy    <       0.00189388 Ry

     iteration #  5     ecut=    60.00 Ry     beta= 0.70
     Davidson diagonalization with overlap
     ethr =  5.92E-06,  avg # of iterations =  5.2

     total cpu time spent up to now is       38.8 secs

     total energy              =    -730.99183964 Ry
     estimated scf accuracy    <       0.00048098 Ry

     iteration #  6     ecut=    60.00 Ry     beta= 0.70
     Davidson diagonalization with overlap
     ethr =  1.50E-06,  avg # of iterations =  2.0

     total cpu time spent up to now is       44.3 secs

     total energy              =    -730.99195619 Ry
     estimated scf accuracy    <       0.00010136 Ry

     iteration #  7     ecut=    60.00 Ry     beta= 0.70
     Davidson diagonalization with overlap
     ethr =  3.17E-07,  avg # of iterations =  1.2

     total cpu time spent up to now is       49.4 secs

     total energy              =    -730.99183758 Ry
     estimated scf accuracy    <       0.00007833 Ry

     iteration #  8     ecut=    60.00 Ry     beta= 0.70
     Davidson diagonalization with overlap
     ethr =  2.45E-07,  avg # of iterations =  1.0

     total cpu time spent up to now is       54.4 secs

     End of self-consistent calculation

     Number of k-points >= 100: set verbosity='high' to print the bands.

     the Fermi energy is    14.2913 ev

!    total energy              =    -730.99183683 Ry
     estimated scf accuracy    <       0.00000359 Ry

     convergence has been achieved in   8 iterations

     Forces acting on atoms (cartesian axes, Ry/au):

     atom    1 type  2   force =     0.02263906    0.00000962   -0.00010197
     atom    2 type  1   force =    -0.02263906   -0.00000962    0.00010197

     Total force =     0.032017     Total SCF correction =     0.000632


     Computing stress (Cartesian axis) and pressure

          total   stress  (Ry/bohr**3)                   (kbar)     P=     -155.99
  -0.00145004   0.00000071  -0.00000037         -213.31        0.10       -0.05
   0.00000071  -0.00086402  -0.00000167            0.10     -127.10       -0.25
  -0.00000037  -0.00000167  -0.00086704           -0.05       -0.25     -127.55


     Molecular Dynamics Calculation

     Starting temperature  =    10.00 K

     temperature is set once at start

     mass Se               =    78.96
     mass Fe               =    55.84
     Time step             =    20.00 a.u.,  0.9676 femto-seconds

     Entering Dynamics:    iteration =     1
                           time      =   0.0010 pico-seconds


ATOMIC_POSITIONS (angstrom)
Fe            0.0004890117        0.0001151143        0.0001904783
Se            1.5216551431        1.5219195846        1.5218662829


     kinetic energy (Ekin) =           0.00009500 Ry
     temperature           =          10.00000000 K 
     Ekin + Etot (const)   =        -730.99174182 Ry
     Ions kinetic stress =            0.04 (kbar)
                                      0.11           0.03           0.05
                                      0.03           0.01           0.01
                                      0.05           0.01           0.02



     Linear momentum :    0.0000000000   -0.0000000000   -0.0000000000

     Writing config-only to output data dir ./work/try_6/calculation_try_6.save/
     NEW-OLD atomic charge density approx. for the potential

     Check: negative core charge=   -0.000007

     total cpu time spent up to now is       57.0 secs

     Self-consistent Calculation

     iteration #  1     ecut=    60.00 Ry     beta= 0.70
     Davidson diagonalization with overlap
     ethr =  1.00E-06,  avg # of iterations =  3.0

     total cpu time spent up to now is       64.3 secs

     total energy              =    -730.99167774 Ry
     estimated scf accuracy    <       0.00024307 Ry

     iteration #  2     ecut=    60.00 Ry     beta= 0.70
     Davidson diagonalization with overlap
     ethr =  7.60E-07,  avg # of iterations =  4.1

     total cpu time spent up to now is       71.7 secs

     total energy              =    -730.99120683 Ry
     estimated scf accuracy    <       0.00791994 Ry

     iteration #  3     ecut=    60.00 Ry     beta= 0.70
     Davidson diagonalization with overlap
     ethr =  7.60E-07,  avg # of iterations =  4.0

     total cpu time spent up to now is       79.3 secs

     End of self-consistent calculation

     Number of k-points >= 100: set verbosity='high' to print the bands.

     the Fermi energy is    14.2881 ev

!    total energy              =    -730.99186928 Ry
     estimated scf accuracy    <       0.00000097 Ry

     convergence has been achieved in   3 iterations

     Forces acting on atoms (cartesian axes, Ry/au):

     atom    1 type  2   force =     0.02156315   -0.00014379   -0.00015480
     atom    2 type  1   force =    -0.02156315    0.00014379    0.00015480

     Total force =     0.030496     Total SCF correction =     0.003317
     SCF correction compared to forces is large: reduce conv_thr to get better values


     Computing stress (Cartesian axis) and pressure

          total   stress  (Ry/bohr**3)                   (kbar)     P=     -145.78
  -0.00137967   0.00000068  -0.00000055         -202.96        0.10       -0.08
   0.00000068  -0.00078711  -0.00000405            0.10     -115.79       -0.60
  -0.00000055  -0.00000405  -0.00080626           -0.08       -0.60     -118.60


     Entering Dynamics:    iteration =     2
                           time      =   0.0019 pico-seconds


ATOMIC_POSITIONS (angstrom)
Fe            0.0010676958        0.0002296306        0.0003803128
Se            1.5212458648        1.5218385922        1.5217320212


     kinetic energy (Ekin) =           0.00012969 Ry
     temperature           =          13.65086511 K 
     Ekin + Etot (const)   =        -730.99173959 Ry
     Ions kinetic stress =            0.06 (kbar)
                                      0.16           0.03           0.06
                                      0.03           0.01           0.01
                                      0.06           0.01           0.02



     Linear momentum :   -0.0000000000   -0.0000000000    0.0000000000

     Writing config-only to output data dir ./work/try_6/calculation_try_6.save/
     NEW-OLD atomic charge density approx. for the potential

     Check: negative core charge=   -0.000007

     total cpu time spent up to now is       82.1 secs

     Self-consistent Calculation

     iteration #  1     ecut=    60.00 Ry     beta= 0.70
     Davidson diagonalization with overlap
     ethr =  1.00E-06,  avg # of iterations =  3.8

     Threshold (ethr) on eigenvalues was too large:
     Diagonalizing with lowered threshold

     Davidson diagonalization with overlap
     ethr =  1.85E-08,  avg # of iterations =  2.4

     total cpu time spent up to now is       95.3 secs

     End of self-consistent calculation

     Number of k-points >= 100: set verbosity='high' to print the bands.

     the Fermi energy is    14.2896 ev

!    total energy              =    -730.99190418 Ry
     estimated scf accuracy    <       0.00000594 Ry

     convergence has been achieved in   1 iterations

     Forces acting on atoms (cartesian axes, Ry/au):

     atom    1 type  2   force =     0.02098216   -0.00021408   -0.00028629
     atom    2 type  1   force =    -0.02098216    0.00021408    0.00028629

     Total force =     0.029678     Total SCF correction =     0.000848


     Computing stress (Cartesian axis) and pressure

          total   stress  (Ry/bohr**3)                   (kbar)     P=     -143.40
  -0.00136801  -0.00000072   0.00000167         -201.24       -0.11        0.25
  -0.00000072  -0.00080263   0.00001028           -0.11     -118.07        1.51
   0.00000167   0.00001028  -0.00075371            0.25        1.51     -110.87


     Entering Dynamics:    iteration =     3
                           time      =   0.0029 pico-seconds


ATOMIC_POSITIONS (angstrom)
Fe            0.0017336363        0.0003432566        0.0005689568
Se            1.5207748739        1.5217582294        1.5215986014


     kinetic energy (Ekin) =           0.00016916 Ry
     temperature           =          17.80573684 K 
     Ekin + Etot (const)   =        -730.99173502 Ry
     Ions kinetic stress =            0.08 (kbar)
                                      0.21           0.04           0.06
                                      0.04           0.01           0.01
                                      0.06           0.01           0.02



     Linear momentum :   -0.0000000000   -0.0000000000   -0.0000000000

     Writing config-only to output data dir ./work/try_6/calculation_try_6.save/
     NEW-OLD atomic charge density approx. for the potential

     Check: negative core charge=   -0.000007

     total cpu time spent up to now is       98.1 secs

     Self-consistent Calculation

     iteration #  1     ecut=    60.00 Ry     beta= 0.70
     Davidson diagonalization with overlap
     ethr =  1.00E-06,  avg # of iterations =  4.0

     total cpu time spent up to now is      106.1 secs

     total energy              =    -730.99190436 Ry
     estimated scf accuracy    <       0.00006460 Ry

     iteration #  2     ecut=    60.00 Ry     beta= 0.70
     Davidson diagonalization with overlap
     ethr =  2.02E-07,  avg # of iterations =  4.0

     total cpu time spent up to now is      113.1 secs

     total energy              =    -730.99182249 Ry
     estimated scf accuracy    <       0.00135326 Ry

     iteration #  3     ecut=    60.00 Ry     beta= 0.70
     Davidson diagonalization with overlap
     ethr =  2.02E-07,  avg # of iterations =  4.0

     total cpu time spent up to now is      119.9 secs

     total energy              =    -730.99194322 Ry
     estimated scf accuracy    <       0.00003575 Ry

     iteration #  4     ecut=    60.00 Ry     beta= 0.70
     Davidson diagonalization with overlap
     ethr =  1.12E-07,  avg # of iterations =  1.1

     total cpu time spent up to now is      124.7 secs

     End of self-consistent calculation

     Number of k-points >= 100: set verbosity='high' to print the bands.

     the Fermi energy is    14.2886 ev

!    total energy              =    -730.99195022 Ry
     estimated scf accuracy    <       0.00000013 Ry

     convergence has been achieved in   4 iterations

     Forces acting on atoms (cartesian axes, Ry/au):

     atom    1 type  2   force =     0.02201996   -0.00002654    0.00001498
     atom    2 type  1   force =    -0.02201996    0.00002654   -0.00001498

     Total force =     0.031141     Total SCF correction =     0.001368


     Computing stress (Cartesian axis) and pressure

          total   stress  (Ry/bohr**3)                   (kbar)     P=     -142.56
  -0.00135855   0.00000013   0.00000069         -199.85        0.02        0.10
   0.00000013  -0.00077617  -0.00000146            0.02     -114.18       -0.21
   0.00000069  -0.00000146  -0.00077263            0.10       -0.21     -113.66


     Entering Dynamics:    iteration =     4
                           time      =   0.0039 pico-seconds


ATOMIC_POSITIONS (angstrom)
Fe            0.0024911488        0.0004567723        0.0007576631
Se            1.5202391180        1.5216779447        1.5214651376


     kinetic energy (Ekin) =           0.00021530 Ry
     temperature           =          22.66264589 K 
     Ekin + Etot (const)   =        -730.99173492 Ry
     Ions kinetic stress =            0.10 (kbar)
                                      0.28           0.04           0.07
                                      0.04           0.01           0.01
                                      0.07           0.01           0.02



     Linear momentum :   -0.0000000000   -0.0000000000   -0.0000000000

     Writing config-only to output data dir ./work/try_6/calculation_try_6.save/
     NEW-OLD atomic charge density approx. for the potential

     Check: negative core charge=   -0.000007

     total cpu time spent up to now is      127.3 secs

     Self-consistent Calculation

     iteration #  1     ecut=    60.00 Ry     beta= 0.70
     Davidson diagonalization with overlap
     ethr =  1.00E-06,  avg # of iterations =  4.1

     Threshold (ethr) on eigenvalues was too large:
     Diagonalizing with lowered threshold

     Davidson diagonalization with overlap
     ethr =  1.55E-08,  avg # of iterations =  2.3

     total cpu time spent up to now is      140.5 secs

     End of self-consistent calculation

     Number of k-points >= 100: set verbosity='high' to print the bands.

     the Fermi energy is    14.2922 ev

!    total energy              =    -730.99199521 Ry
     estimated scf accuracy    <       0.00000515 Ry

     convergence has been achieved in   1 iterations

     Forces acting on atoms (cartesian axes, Ry/au):

     atom    1 type  2   force =     0.02069945   -0.00024510   -0.00034690
     atom    2 type  1   force =    -0.02069945    0.00024510    0.00034690

     Total force =     0.029280     Total SCF correction =     0.001008


     Computing stress (Cartesian axis) and pressure

          total   stress  (Ry/bohr**3)                   (kbar)     P=     -150.96
  -0.00141268   0.00000100   0.00000071         -207.81        0.15        0.10
   0.00000100  -0.00083457   0.00000727            0.15     -122.77        1.07
   0.00000071   0.00000727  -0.00083141            0.10        1.07     -122.30


     Entering Dynamics:    iteration =     5
                           time      =   0.0048 pico-seconds


ATOMIC_POSITIONS (angstrom)
Fe            0.0033347420        0.0005692687        0.0009449267
Se            1.5196424809        1.5215983808        1.5213326941


     kinetic energy (Ekin) =           0.00026726 Ry
     temperature           =          28.13148890 K 
     Ekin + Etot (const)   =        -730.99172795 Ry
     Ions kinetic stress =            0.13 (kbar)
                                      0.35           0.05           0.08
                                      0.05           0.01           0.01
                                      0.08           0.01           0.02



     Linear momentum :   -0.0000000000   -0.0000000000   -0.0000000000

     Writing config-only to output data dir ./work/try_6/calculation_try_6.save/
     NEW-OLD atomic charge density approx. for the potential

     Check: negative core charge=   -0.000007

     total cpu time spent up to now is      143.3 secs

     Self-consistent Calculation

     iteration #  1     ecut=    60.00 Ry     beta= 0.70
     Davidson diagonalization with overlap
     ethr =  1.00E-06,  avg # of iterations =  4.3

     total cpu time spent up to now is      151.6 secs

     total energy              =    -730.99179769 Ry
     estimated scf accuracy    <       0.00032468 Ry

     iteration #  2     ecut=    60.00 Ry     beta= 0.70
     Davidson diagonalization with overlap
     ethr =  1.01E-06,  avg # of iterations =  4.1

     total cpu time spent up to now is      159.4 secs

     total energy              =    -730.99116102 Ry
     estimated scf accuracy    <       0.01056685 Ry

     iteration #  3     ecut=    60.00 Ry     beta= 0.70
     Davidson diagonalization with overlap
     ethr =  1.01E-06,  avg # of iterations =  4.0

     total cpu time spent up to now is      166.7 secs

     End of self-consistent calculation

     Number of k-points >= 100: set verbosity='high' to print the bands.

     the Fermi energy is    14.2886 ev

!    total energy              =    -730.99205169 Ry
     estimated scf accuracy    <       0.00000161 Ry

     convergence has been achieved in   3 iterations

     Forces acting on atoms (cartesian axes, Ry/au):

     atom    1 type  2   force =     0.02171197   -0.00008649   -0.00007387
     atom    2 type  1   force =    -0.02171197    0.00008649    0.00007387

     Total force =     0.030706     Total SCF correction =     0.003504
     SCF correction compared to forces is large: reduce conv_thr to get better values


     Computing stress (Cartesian axis) and pressure

          total   stress  (Ry/bohr**3)                   (kbar)     P=     -143.60
  -0.00136064   0.00000112   0.00000060         -200.16        0.16        0.09
   0.00000112  -0.00079317   0.00001199            0.16     -116.68        1.76
   0.00000060   0.00001199  -0.00077470            0.09        1.76     -113.96


     Entering Dynamics:    iteration =     6
                           time      =   0.0058 pico-seconds


ATOMIC_POSITIONS (angstrom)
Fe            0.0042686265        0.0006814054        0.0011318831
Se            1.5189819847        1.5215190714        1.5212004679


     kinetic energy (Ekin) =           0.00032486 Ry
     temperature           =          34.19424104 K 
     Ekin + Etot (const)   =        -730.99172683 Ry
     Ions kinetic stress =            0.15 (kbar)
                                      0.43           0.05           0.09
                                      0.05           0.01           0.01
                                      0.09           0.01           0.02



     Linear momentum :   -0.0000000000    0.0000000000   -0.0000000000

     Writing config-only to output data dir ./work/try_6/calculation_try_6.save/
     NEW-OLD atomic charge density approx. for the potential

     Check: negative core charge=   -0.000007

     total cpu time spent up to now is      169.3 secs

     Self-consistent Calculation

     iteration #  1     ecut=    60.00 Ry     beta= 0.70
     Davidson diagonalization with overlap
     ethr =  1.00E-06,  avg # of iterations =  5.0

     Threshold (ethr) on eigenvalues was too large:
     Diagonalizing with lowered threshold

     Davidson diagonalization with overlap
     ethr =  2.58E-08,  avg # of iterations =  1.8

     total cpu time spent up to now is      182.9 secs

     End of self-consistent calculation

     Number of k-points >= 100: set verbosity='high' to print the bands.

     the Fermi energy is    14.2882 ev

!    total energy              =    -730.99211045 Ry
     estimated scf accuracy    <       0.00000831 Ry

     convergence has been achieved in   1 iterations

     Forces acting on atoms (cartesian axes, Ry/au):

     atom    1 type  2   force =     0.02066442   -0.00018763   -0.00024621
     atom    2 type  1   force =    -0.02066442    0.00018763    0.00024621

     Total force =     0.029227     Total SCF correction =     0.000673


     Computing stress (Cartesian axis) and pressure

          total   stress  (Ry/bohr**3)                   (kbar)     P=     -139.02
  -0.00133045  -0.00000049   0.00000138         -195.72       -0.07        0.20
  -0.00000049  -0.00072738  -0.00002243           -0.07     -107.00       -3.30
   0.00000138  -0.00002243  -0.00077732            0.20       -3.30     -114.35


     Entering Dynamics:    iteration =     7
                           time      =   0.0068 pico-seconds


ATOMIC_POSITIONS (angstrom)
Fe            0.0052884460        0.0007927619        0.0013178157
Se            1.5182607104        1.5214403137        1.5210689658


     kinetic energy (Ekin) =           0.00038848 Ry
     temperature           =          40.89060858 K 
     Ekin + Etot (const)   =        -730.99172197 Ry
     Ions kinetic stress =            0.18 (kbar)
                                      0.52           0.06           0.10
                                      0.06           0.01           0.01
                                      0.10           0.01           0.02



     Linear momentum :   -0.0000000000   -0.0000000000   -0.0000000000

     Writing config-only to output data dir ./work/try_6/calculation_try_6.save/
     NEW-OLD atomic charge density approx. for the potential

     Check: negative core charge=   -0.000007

     total cpu time spent up to now is      185.6 secs

     Self-consistent Calculation

     iteration #  1     ecut=    60.00 Ry     beta= 0.70
     Davidson diagonalization with overlap
     ethr =  1.00E-06,  avg # of iterations =  5.0

     total cpu time spent up to now is      193.8 secs

     total energy              =    -730.99214357 Ry
     estimated scf accuracy    <       0.00006068 Ry

     iteration #  2     ecut=    60.00 Ry     beta= 0.70
     Davidson diagonalization with overlap
     ethr =  1.90E-07,  avg # of iterations =  3.4

     total cpu time spent up to now is      200.7 secs

     total energy              =    -730.99205505 Ry
     estimated scf accuracy    <       0.00095893 Ry

     iteration #  3     ecut=    60.00 Ry     beta= 0.70
     Davidson diagonalization with overlap
     ethr =  1.90E-07,  avg # of iterations =  4.0

     total cpu time spent up to now is      208.2 secs

     total energy              =    -730.99217911 Ry
     estimated scf accuracy    <       0.00006477 Ry

     iteration #  4     ecut=    60.00 Ry     beta= 0.70
     Davidson diagonalization with overlap
     ethr =  1.90E-07,  avg # of iterations =  1.1

     total cpu time spent up to now is      213.2 secs

     End of self-consistent calculation

     Number of k-points >= 100: set verbosity='high' to print the bands.

     the Fermi energy is    14.2894 ev

!    total energy              =    -730.99218150 Ry
     estimated scf accuracy    <       0.00000028 Ry

     convergence has been achieved in   4 iterations

     Forces acting on atoms (cartesian axes, Ry/au):

     atom    1 type  2   force =     0.02255694    0.00000425    0.00007087
     atom    2 type  1   force =    -0.02255694   -0.00000425   -0.00007087

     Total force =     0.031900     Total SCF correction =     0.001655


     Computing stress (Cartesian axis) and pressure

          total   stress  (Ry/bohr**3)                   (kbar)     P=     -143.23
  -0.00135646   0.00000044   0.00000100         -199.54        0.06        0.15
   0.00000044  -0.00078060  -0.00000619            0.06     -114.83       -0.91
   0.00000100  -0.00000619  -0.00078398            0.15       -0.91     -115.33


     Entering Dynamics:    iteration =     8
                           time      =   0.0077 pico-seconds


ATOMIC_POSITIONS (angstrom)
Fe            0.0064020707        0.0009041360        0.0015040430
Se            1.5174730917        1.5213615436        1.5209372553


     kinetic energy (Ekin) =           0.00045963 Ry
     temperature           =          48.38024037 K 
     Ekin + Etot (const)   =        -730.99172187 Ry
     Ions kinetic stress =            0.22 (kbar)
                                      0.62           0.06           0.11
                                      0.06           0.01           0.01
                                      0.11           0.01           0.02



     Linear momentum :   -0.0000000000   -0.0000000000    0.0000000000

     Writing config-only to output data dir ./work/try_6/calculation_try_6.save/
     NEW-OLD atomic charge density approx. for the potential

     Check: negative core charge=   -0.000007

     total cpu time spent up to now is      215.9 secs

     Self-consistent Calculation

     iteration #  1     ecut=    60.00 Ry     beta= 0.70
     Davidson diagonalization with overlap
     ethr =  1.00E-06,  avg # of iterations =  5.0

     Threshold (ethr) on eigenvalues was too large:
     Diagonalizing with lowered threshold

     Davidson diagonalization with overlap
     ethr =  2.84E-08,  avg # of iterations =  1.8

     total cpu time spent up to now is      229.4 secs

     End of self-consistent calculation

     Number of k-points >= 100: set verbosity='high' to print the bands.

     the Fermi energy is    14.2849 ev

!    total energy              =    -730.99224505 Ry
     estimated scf accuracy    <       0.00000933 Ry

     convergence has been achieved in   1 iterations

     Forces acting on atoms (cartesian axes, Ry/au):

     atom    1 type  2   force =     0.02014885   -0.00022033   -0.00031423
     atom    2 type  1   force =    -0.02014885    0.00022033    0.00031423

     Total force =     0.028500     Total SCF correction =     0.002695


     Computing stress (Cartesian axis) and pressure

          total   stress  (Ry/bohr**3)                   (kbar)     P=     -128.35
  -0.00125155   0.00000144   0.00000184         -184.11        0.21        0.27
   0.00000144  -0.00068059   0.00001373            0.21     -100.12        2.02
   0.00000184   0.00001373  -0.00068535            0.27        2.02     -100.82


     Entering Dynamics:    iteration =     9
                           time      =   0.0087 pico-seconds


ATOMIC_POSITIONS (angstrom)
Fe            0.0075994863        0.0010145939        0.0016889635
Se            1.5166262113        1.5212834215        1.5208064690


     kinetic energy (Ekin) =           0.00053607 Ry
     temperature           =          56.42546669 K 
     Ekin + Etot (const)   =        -730.99170898 Ry
     Ions kinetic stress =            0.25 (kbar)
                                      0.73           0.07           0.12
                                      0.07           0.01           0.01
                                      0.12           0.01           0.02



     Linear momentum :   -0.0000000000   -0.0000000000    0.0000000000

     Writing config-only to output data dir ./work/try_6/calculation_try_6.save/
     NEW-OLD atomic charge density approx. for the potential

     Check: negative core charge=   -0.000007

     total cpu time spent up to now is      232.1 secs

     Self-consistent Calculation

     iteration #  1     ecut=    60.00 Ry     beta= 0.70
     Davidson diagonalization with overlap
     ethr =  1.00E-06,  avg # of iterations =  5.0

     total cpu time spent up to now is      240.7 secs

     total energy              =    -730.99191461 Ry
     estimated scf accuracy    <       0.00056656 Ry

     iteration #  2     ecut=    60.00 Ry     beta= 0.70
     Davidson diagonalization with overlap
     ethr =  1.77E-06,  avg # of iterations =  4.1

     total cpu time spent up to now is      248.2 secs

     total energy              =    -730.99052860 Ry
     estimated scf accuracy    <       0.01966549 Ry

     iteration #  3     ecut=    60.00 Ry     beta= 0.70
     Davidson diagonalization with overlap
     ethr =  1.77E-06,  avg # of iterations =  4.1

     total cpu time spent up to now is      255.6 secs

     End of self-consistent calculation

     Number of k-points >= 100: set verbosity='high' to print the bands.

     the Fermi energy is    14.2910 ev

!    total energy              =    -730.99233126 Ry
     estimated scf accuracy    <       0.00000419 Ry

     convergence has been achieved in   3 iterations

     Forces acting on atoms (cartesian axes, Ry/au):

     atom    1 type  2   force =     0.02248900   -0.00001254    0.00003230
     atom    2 type  1   force =    -0.02248900    0.00001254   -0.00003230

     Total force =     0.031804     Total SCF correction =     0.002955


     Computing stress (Cartesian axis) and pressure

          total   stress  (Ry/bohr**3)                   (kbar)     P=     -141.13
  -0.00134065   0.00000164   0.00000214         -197.22        0.24        0.31
   0.00000164  -0.00076218   0.00002455            0.24     -112.12        3.61
   0.00000214   0.00002455  -0.00077523            0.31        3.61     -114.04


     Entering Dynamics:    iteration =    10
                           time      =   0.0097 pico-seconds


ATOMIC_POSITIONS (angstrom)
Fe            0.0088904246        0.0011249996        0.0018740184
Se            1.5157131864        1.5212053363        1.5206755877


     kinetic energy (Ekin) =           0.00061847 Ry
     temperature           =          65.09874350 K 
     Ekin + Etot (const)   =        -730.99171279 Ry
     Ions kinetic stress =            0.29 (kbar)
                                      0.84           0.07           0.13
                                      0.07           0.01           0.01
                                      0.13           0.01           0.02



     Linear momentum :    0.0000000000   -0.0000000000    0.0000000000

     Writing config-only to output data dir ./work/try_6/calculation_try_6.save/
     NEW-OLD atomic charge density approx. for the potential

     Check: negative core charge=   -0.000007

     total cpu time spent up to now is      258.3 secs

     Self-consistent Calculation

     iteration #  1     ecut=    60.00 Ry     beta= 0.70
     Davidson diagonalization with overlap
     ethr =  1.00E-06,  avg # of iterations =  5.0

     total cpu time spent up to now is      266.9 secs

     total energy              =    -730.99238758 Ry
     estimated scf accuracy    <       0.00004643 Ry

     iteration #  2     ecut=    60.00 Ry     beta= 0.70
     Davidson diagonalization with overlap
     ethr =  1.45E-07,  avg # of iterations =  3.9

     total cpu time spent up to now is      274.1 secs

     total energy              =    -730.99232482 Ry
     estimated scf accuracy    <       0.00105482 Ry

     iteration #  3     ecut=    60.00 Ry     beta= 0.70
     Davidson diagonalization with overlap
     ethr =  1.45E-07,  avg # of iterations =  4.0

     total cpu time spent up to now is      281.5 secs

     total energy              =    -730.99241566 Ry
     estimated scf accuracy    <       0.00001665 Ry

     iteration #  4     ecut=    60.00 Ry     beta= 0.70
     Davidson diagonalization with overlap
     ethr =  5.20E-08,  avg # of iterations =  1.1

     total cpu time spent up to now is      286.4 secs

     End of self-consistent calculation

     Number of k-points >= 100: set verbosity='high' to print the bands.

     the Fermi energy is    14.2897 ev

!    total energy              =    -730.99242123 Ry
     estimated scf accuracy    <       0.00000019 Ry

     convergence has been achieved in   4 iterations

     Forces acting on atoms (cartesian axes, Ry/au):

     atom    1 type  2   force =     0.02309146    0.00003054    0.00011497
     atom    2 type  1   force =    -0.02309146   -0.00003054   -0.00011497

     Total force =     0.032657     Total SCF correction =     0.001716


     Computing stress (Cartesian axis) and pressure

          total   stress  (Ry/bohr**3)                   (kbar)     P=     -141.59
  -0.00133793   0.00000091   0.00000147         -196.82        0.13        0.22
   0.00000091  -0.00077561  -0.00000197            0.13     -114.10       -0.29
   0.00000147  -0.00000197  -0.00077403            0.22       -0.29     -113.86


     Entering Dynamics:    iteration =    11
                           time      =   0.0106 pico-seconds


ATOMIC_POSITIONS (angstrom)
Fe            0.0102773909        0.0012355324        0.0020595513
Se            1.5147322450        1.5211271613        1.5205443682


     kinetic energy (Ekin) =           0.00071348 Ry
     temperature           =          75.09954443 K 
     Ekin + Etot (const)   =        -730.99170775 Ry
     Ions kinetic stress =            0.33 (kbar)
                                      0.98           0.08           0.14
                                      0.08           0.01           0.01
                                      0.14           0.01           0.02



     Linear momentum :    0.0000000000   -0.0000000000    0.0000000000

     Writing config-only to output data dir ./work/try_6/calculation_try_6.save/
     NEW-OLD atomic charge density approx. for the potential

     Check: negative core charge=   -0.000007

     total cpu time spent up to now is      289.0 secs

     Self-consistent Calculation

     iteration #  1     ecut=    60.00 Ry     beta= 0.70
     Davidson diagonalization with overlap
     ethr =  1.00E-06,  avg # of iterations =  5.0

     Threshold (ethr) on eigenvalues was too large:
     Diagonalizing with lowered threshold

     Davidson diagonalization with overlap
     ethr =  1.06E-08,  avg # of iterations =  2.5

     total cpu time spent up to now is      303.5 secs

     End of self-consistent calculation

     Number of k-points >= 100: set verbosity='high' to print the bands.

     the Fermi energy is    14.2919 ev

!    total energy              =    -730.99251141 Ry
     estimated scf accuracy    <       0.00000350 Ry

     convergence has been achieved in   1 iterations

     Forces acting on atoms (cartesian axes, Ry/au):

     atom    1 type  2   force =     0.02061277   -0.00015773   -0.00021087
     atom    2 type  1   force =    -0.02061277    0.00015773    0.00021087

     Total force =     0.029153     Total SCF correction =     0.003336
     SCF correction compared to forces is large: reduce conv_thr to get better values


     Computing stress (Cartesian axis) and pressure

          total   stress  (Ry/bohr**3)                   (kbar)     P=     -144.19
  -0.00135265   0.00000171   0.00000279         -198.98        0.25        0.41
   0.00000171  -0.00079037   0.00001118            0.25     -116.27        1.64
   0.00000279   0.00001118  -0.00079760            0.41        1.64     -117.33


     Entering Dynamics:    iteration =    12
                           time      =   0.0116 pico-seconds


ATOMIC_POSITIONS (angstrom)
Fe            0.0117500773        0.0013454092        0.0022442074
Se            1.5136906774        1.5210494502        1.5204137690


     kinetic energy (Ekin) =           0.00081103 Ry
     temperature           =          85.36735080 K 
     Ekin + Etot (const)   =        -730.99170038 Ry
     Ions kinetic stress =            0.38 (kbar)
                                      1.12           0.09           0.14
                                      0.09           0.01           0.01
                                      0.14           0.01           0.02



     Linear momentum :    0.0000000000   -0.0000000000    0.0000000000

     Writing config-only to output data dir ./work/try_6/calculation_try_6.save/
     NEW-OLD atomic charge density approx. for the potential

     Check: negative core charge=   -0.000007

     total cpu time spent up to now is      306.3 secs

     Self-consistent Calculation

     iteration #  1     ecut=    60.00 Ry     beta= 0.70
     Davidson diagonalization with overlap
     ethr =  1.00E-06,  avg # of iterations =  5.0

     total cpu time spent up to now is      315.4 secs

     total energy              =    -730.99252153 Ry
     estimated scf accuracy    <       0.00011639 Ry

     iteration #  2     ecut=    60.00 Ry     beta= 0.70
     Davidson diagonalization with overlap
     ethr =  3.64E-07,  avg # of iterations =  4.1

     total cpu time spent up to now is      322.8 secs

     total energy              =    -730.99230817 Ry
     estimated scf accuracy    <       0.00372134 Ry

     iteration #  3     ecut=    60.00 Ry     beta= 0.70
     Davidson diagonalization with overlap
     ethr =  3.64E-07,  avg # of iterations =  4.0

     total cpu time spent up to now is      329.9 secs

     End of self-consistent calculation

     Number of k-points >= 100: set verbosity='high' to print the bands.

     the Fermi energy is    14.2894 ev

!    total energy              =    -730.99261240 Ry
     estimated scf accuracy    <       0.00000271 Ry

     convergence has been achieved in   3 iterations

     Forces acting on atoms (cartesian axes, Ry/au):

     atom    1 type  2   force =     0.02264198    0.00000827    0.00005963
     atom    2 type  1   force =    -0.02264198   -0.00000827   -0.00005963

     Total force =     0.032021     Total SCF correction =     0.004207
     SCF correction compared to forces is large: reduce conv_thr to get better values


     Computing stress (Cartesian axis) and pressure

          total   stress  (Ry/bohr**3)                   (kbar)     P=     -139.80
  -0.00132043   0.00000174   0.00000284         -194.24        0.26        0.42
   0.00000174  -0.00075545   0.00001778            0.26     -111.13        2.62
   0.00000284   0.00001778  -0.00077512            0.42        2.62     -114.02


     Entering Dynamics:    iteration =    13
                           time      =   0.0126 pico-seconds


ATOMIC_POSITIONS (angstrom)
Fe            0.0133169227        0.0014553204        0.0024291114
Se            1.5125825154        1.5209717147        1.5202829943


     kinetic energy (Ekin) =           0.00091386 Ry
     temperature           =          96.19134381 K 
     Ekin + Etot (const)   =        -730.99169854 Ry
     Ions kinetic stress =            0.43 (kbar)
                                      1.26           0.09           0.15
                                      0.09           0.01           0.01
                                      0.15           0.01           0.02



     Linear momentum :    0.0000000000    0.0000000000   -0.0000000000

     Writing config-only to output data dir ./work/try_6/calculation_try_6.save/
     NEW-OLD atomic charge density approx. for the potential

     Check: negative core charge=   -0.000007

     total cpu time spent up to now is      332.6 secs

     Self-consistent Calculation

     iteration #  1     ecut=    60.00 Ry     beta= 0.70
     Davidson diagonalization with overlap
     ethr =  1.00E-06,  avg # of iterations =  5.0

     Threshold (ethr) on eigenvalues was too large:
     Diagonalizing with lowered threshold

     Davidson diagonalization with overlap
     ethr =  5.31E-08,  avg # of iterations =  1.5

     total cpu time spent up to now is      346.3 secs

     total energy              =    -730.99271454 Ry
     estimated scf accuracy    <       0.00001709 Ry

     iteration #  2     ecut=    60.00 Ry     beta= 0.70
     Davidson diagonalization with overlap
     ethr =  5.34E-08,  avg # of iterations =  3.1

     total cpu time spent up to now is      352.7 secs

     total energy              =    -730.99268925 Ry
     estimated scf accuracy    <       0.00018867 Ry

     iteration #  3     ecut=    60.00 Ry     beta= 0.70
     Davidson diagonalization with overlap
     ethr =  5.34E-08,  avg # of iterations =  3.8

     total cpu time spent up to now is      359.3 secs

     total energy              =    -730.99272069 Ry
     estimated scf accuracy    <       0.00002995 Ry

     iteration #  4     ecut=    60.00 Ry     beta= 0.70
     Davidson diagonalization with overlap
     ethr =  5.34E-08,  avg # of iterations =  1.9

     total cpu time spent up to now is      364.5 secs

     End of self-consistent calculation

     Number of k-points >= 100: set verbosity='high' to print the bands.

     the Fermi energy is    14.2905 ev

!    total energy              =    -730.99272377 Ry
     estimated scf accuracy    <       0.00000022 Ry

     convergence has been achieved in   4 iterations

     Forces acting on atoms (cartesian axes, Ry/au):

     atom    1 type  2   force =     0.02385459    0.00008283    0.00016430
     atom    2 type  1   force =    -0.02385459   -0.00008283   -0.00016430

     Total force =     0.033736     Total SCF correction =     0.001834


     Computing stress (Cartesian axis) and pressure

          total   stress  (Ry/bohr**3)                   (kbar)     P=     -143.37
  -0.00134203   0.00000095   0.00000166         -197.42        0.14        0.24
   0.00000095  -0.00079189  -0.00000143            0.14     -116.49       -0.21
   0.00000166  -0.00000143  -0.00078990            0.24       -0.21     -116.20


     Entering Dynamics:    iteration =    14
                           time      =   0.0135 pico-seconds


ATOMIC_POSITIONS (angstrom)
Fe            0.0149829696        0.0015655760        0.0026146987
Se            1.5114041923        1.5208937357        1.5201517365


     kinetic energy (Ekin) =           0.00103156 Ry
     temperature           =         108.58007710 K 
     Ekin + Etot (const)   =        -730.99169221 Ry
     Ions kinetic stress =            0.48 (kbar)
                                      1.43           0.10           0.16
                                      0.10           0.01           0.01
                                      0.16           0.01           0.02



     Linear momentum :    0.0000000000    0.0000000000   -0.0000000000

     Writing config-only to output data dir ./work/try_6/calculation_try_6.save/
     NEW-OLD atomic charge density approx. for the potential

     Check: negative core charge=   -0.000007

     total cpu time spent up to now is      367.2 secs

     Self-consistent Calculation

     iteration #  1     ecut=    60.00 Ry     beta= 0.70
     Davidson diagonalization with overlap
     ethr =  1.00E-06,  avg # of iterations =  5.0

     Threshold (ethr) on eigenvalues was too large:
     Diagonalizing with lowered threshold

     Davidson diagonalization with overlap
     ethr =  1.40E-08,  avg # of iterations =  2.4

     total cpu time spent up to now is      382.2 secs

     End of self-consistent calculation

     Number of k-points >= 100: set verbosity='high' to print the bands.

     the Fermi energy is    14.2885 ev

!    total energy              =    -730.99283475 Ry
     estimated scf accuracy    <       0.00000449 Ry

     convergence has been achieved in   1 iterations

     Forces acting on atoms (cartesian axes, Ry/au):

     atom    1 type  2   force =     0.02032071   -0.00016863   -0.00007921
     atom    2 type  1   force =    -0.02032071    0.00016863    0.00007921

     Total force =     0.028739     Total SCF correction =     0.005380
     SCF correction compared to forces is large: reduce conv_thr to get better values


     Computing stress (Cartesian axis) and pressure

          total   stress  (Ry/bohr**3)                   (kbar)     P=     -128.98
  -0.00123829   0.00000185   0.00000459         -182.16        0.27        0.68
   0.00000185  -0.00069055   0.00000933            0.27     -101.58        1.37
   0.00000459   0.00000933  -0.00070162            0.68        1.37     -103.21


     Entering Dynamics:    iteration =    15
                           time      =   0.0145 pico-seconds


ATOMIC_POSITIONS (angstrom)
Fe            0.0167335221        0.0016751303        0.0027999566
Se            1.5101661020        1.5208162526        1.5200207116


     kinetic energy (Ekin) =           0.00115003 Ry
     temperature           =         121.05017079 K 
     Ekin + Etot (const)   =        -730.99168472 Ry
     Ions kinetic stress =            0.54 (kbar)
                                      1.59           0.10           0.17
                                      0.10           0.01           0.01
                                      0.17           0.01           0.02



     Linear momentum :   -0.0000000000   -0.0000000000   -0.0000000000

     Writing config-only to output data dir ./work/try_6/calculation_try_6.save/
     NEW-OLD atomic charge density approx. for the potential

     Check: negative core charge=   -0.000007

     total cpu time spent up to now is      385.0 secs

     Self-consistent Calculation

     iteration #  1     ecut=    60.00 Ry     beta= 0.70
     Davidson diagonalization with overlap
     ethr =  1.00E-06,  avg # of iterations =  5.0

     total cpu time spent up to now is      393.6 secs

     total energy              =    -730.99286419 Ry
     estimated scf accuracy    <       0.00013676 Ry

     iteration #  2     ecut=    60.00 Ry     beta= 0.70
     Davidson diagonalization with overlap
     ethr =  4.27E-07,  avg # of iterations =  4.0

     total cpu time spent up to now is      400.7 secs

     total energy              =    -730.99252099 Ry
     estimated scf accuracy    <       0.00452120 Ry

     iteration #  3     ecut=    60.00 Ry     beta= 0.70
     Davidson diagonalization with overlap
     ethr =  4.27E-07,  avg # of iterations =  4.0

     total cpu time spent up to now is      407.7 secs

     End of self-consistent calculation

     Number of k-points >= 100: set verbosity='high' to print the bands.

     the Fermi energy is    14.2928 ev

!    total energy              =    -730.99296224 Ry
     estimated scf accuracy    <       0.00000430 Ry

     convergence has been achieved in   3 iterations

     Forces acting on atoms (cartesian axes, Ry/au):

     atom    1 type  2   force =     0.02387339    0.00002324    0.00018685
     atom    2 type  1   force =    -0.02387339   -0.00002324   -0.00018685

     Total force =     0.033763     Total SCF correction =     0.004736
     SCF correction compared to forces is large: reduce conv_thr to get better values


     Computing stress (Cartesian axis) and pressure

          total   stress  (Ry/bohr**3)                   (kbar)     P=     -139.24
  -0.00130723   0.00000194   0.00000601         -192.30        0.29        0.88
   0.00000194  -0.00075012   0.00001586            0.29     -110.35        2.33
   0.00000601   0.00001586  -0.00078235            0.88        2.33     -115.09


     Entering Dynamics:    iteration =    16
                           time      =   0.0155 pico-seconds


ATOMIC_POSITIONS (angstrom)
Fe            0.0185833545        0.0017847813        0.0029859914
Se            1.5088577955        1.5207387012        1.5198891371


     kinetic energy (Ekin) =           0.00127510 Ry
     temperature           =         134.21458682 K 
     Ekin + Etot (const)   =        -730.99168715 Ry
     Ions kinetic stress =            0.60 (kbar)
                                      1.77           0.11           0.18
                                      0.11           0.01           0.01
                                      0.18           0.01           0.02



     Linear momentum :    0.0000000000   -0.0000000000   -0.0000000000

     Writing config-only to output data dir ./work/try_6/calculation_try_6.save/
     NEW-OLD atomic charge density approx. for the potential

     Check: negative core charge=   -0.000007

     total cpu time spent up to now is      410.3 secs

     Self-consistent Calculation

     iteration #  1     ecut=    60.00 Ry     beta= 0.70
     Davidson diagonalization with overlap
     ethr =  1.00E-06,  avg # of iterations =  5.0

     total cpu time spent up to now is      419.0 secs

     total energy              =    -730.99306756 Ry
     estimated scf accuracy    <       0.00003912 Ry

     iteration #  2     ecut=    60.00 Ry     beta= 0.70
     Davidson diagonalization with overlap
     ethr =  1.22E-07,  avg # of iterations =  3.5

     total cpu time spent up to now is      425.7 secs

     total energy              =    -730.99302395 Ry
     estimated scf accuracy    <       0.00074984 Ry

     iteration #  3     ecut=    60.00 Ry     beta= 0.70
     Davidson diagonalization with overlap
     ethr =  1.22E-07,  avg # of iterations =  4.0

     total cpu time spent up to now is      433.0 secs

     total energy              =    -730.99308940 Ry
     estimated scf accuracy    <       0.00002693 Ry

     iteration #  4     ecut=    60.00 Ry     beta= 0.70
     Davidson diagonalization with overlap
     ethr =  8.42E-08,  avg # of iterations =  1.1

     total cpu time spent up to now is      437.9 secs

     End of self-consistent calculation

     Number of k-points >= 100: set verbosity='high' to print the bands.

     the Fermi energy is    14.2924 ev

!    total energy              =    -730.99309689 Ry
     estimated scf accuracy    <       0.00000030 Ry

     convergence has been achieved in   4 iterations

     Forces acting on atoms (cartesian axes, Ry/au):

     atom    1 type  2   force =     0.02485342    0.00010309    0.00015701
     atom    2 type  1   force =    -0.02485342   -0.00010309   -0.00015701

     Total force =     0.035149     Total SCF correction =     0.002433


     Computing stress (Cartesian axis) and pressure

          total   stress  (Ry/bohr**3)                   (kbar)     P=     -140.10
  -0.00130637   0.00000194   0.00000277         -192.17        0.29        0.41
   0.00000194  -0.00077659  -0.00000302            0.29     -114.24       -0.44
   0.00000277  -0.00000302  -0.00077419            0.41       -0.44     -113.89


     Entering Dynamics:    iteration =    17
                           time      =   0.0164 pico-seconds


ATOMIC_POSITIONS (angstrom)
Fe            0.0205365421        0.0018948610        0.0031726793
Se            1.5074763901        1.5206608466        1.5197571009


     kinetic energy (Ekin) =           0.00142070 Ry
     temperature           =         149.54092317 K 
     Ekin + Etot (const)   =        -730.99167618 Ry
     Ions kinetic stress =            0.67 (kbar)
                                      1.97           0.11           0.19
                                      0.11           0.01           0.01
                                      0.19           0.01           0.02



     Linear momentum :    0.0000000000   -0.0000000000   -0.0000000000

     Writing config-only to output data dir ./work/try_6/calculation_try_6.save/
     NEW-OLD atomic charge density approx. for the potential

     Check: negative core charge=   -0.000007

     total cpu time spent up to now is      440.7 secs

     Self-consistent Calculation

     iteration #  1     ecut=    60.00 Ry     beta= 0.70
     Davidson diagonalization with overlap
     ethr =  1.00E-06,  avg # of iterations =  5.0

     Threshold (ethr) on eigenvalues was too large:
     Diagonalizing with lowered threshold

     Davidson diagonalization with overlap
     ethr =  1.87E-08,  avg # of iterations =  2.4

     total cpu time spent up to now is      455.6 secs

     End of self-consistent calculation

     Number of k-points >= 100: set verbosity='high' to print the bands.

     the Fermi energy is    14.2954 ev

!    total energy              =    -730.99323130 Ry
     estimated scf accuracy    <       0.00000614 Ry

     convergence has been achieved in   1 iterations

     Forces acting on atoms (cartesian axes, Ry/au):

     atom    1 type  2   force =     0.02134335   -0.00015385   -0.00022541
     atom    2 type  1   force =    -0.02134335    0.00015385    0.00022541

     Total force =     0.030187     Total SCF correction =     0.004726
     SCF correction compared to forces is large: reduce conv_thr to get better values


     Computing stress (Cartesian axis) and pressure

          total   stress  (Ry/bohr**3)                   (kbar)     P=     -141.17
  -0.00131130   0.00000118   0.00000326         -192.90        0.17        0.48
   0.00000118  -0.00077637   0.00000838            0.17     -114.21        1.23
   0.00000326   0.00000838  -0.00079125            0.48        1.23     -116.40


     Entering Dynamics:    iteration =    18
                           time      =   0.0174 pico-seconds


ATOMIC_POSITIONS (angstrom)
Fe            0.0225784882        0.0020043008        0.0033584297
Se            1.5060322098        1.5205834445        1.5196257276


     kinetic energy (Ekin) =           0.00156596 Ry
     temperature           =         164.82993142 K 
     Ekin + Etot (const)   =        -730.99166534 Ry
     Ions kinetic stress =            0.73 (kbar)
                                      2.18           0.12           0.20
                                      0.12           0.01           0.01
                                      0.20           0.01           0.02



     Linear momentum :    0.0000000000   -0.0000000000    0.0000000000

     Writing config-only to output data dir ./work/try_6/calculation_try_6.save/
     NEW-OLD atomic charge density approx. for the potential

     Check: negative core charge=   -0.000007

     total cpu time spent up to now is      458.4 secs

     Self-consistent Calculation

     iteration #  1     ecut=    60.00 Ry     beta= 0.70
     Davidson diagonalization with overlap
     ethr =  1.00E-06,  avg # of iterations =  5.0

     total cpu time spent up to now is      467.2 secs

     total energy              =    -730.99321016 Ry
     estimated scf accuracy    <       0.00021061 Ry

     iteration #  2     ecut=    60.00 Ry     beta= 0.70
     Davidson diagonalization with overlap
     ethr =  6.58E-07,  avg # of iterations =  4.1

     total cpu time spent up to now is      474.6 secs

     total energy              =    -730.99281122 Ry
     estimated scf accuracy    <       0.00691546 Ry

     iteration #  3     ecut=    60.00 Ry     beta= 0.70
     Davidson diagonalization with overlap
     ethr =  6.58E-07,  avg # of iterations =  4.0

     total cpu time spent up to now is      481.5 secs

     End of self-consistent calculation

     Number of k-points >= 100: set verbosity='high' to print the bands.

     the Fermi energy is    14.2930 ev

!    total energy              =    -730.99338144 Ry
     estimated scf accuracy    <       0.00000316 Ry

     convergence has been achieved in   3 iterations

     Forces acting on atoms (cartesian axes, Ry/au):

     atom    1 type  2   force =     0.02445624    0.00005543    0.00010197
     atom    2 type  1   force =    -0.02445624   -0.00005543   -0.00010197

     Total force =     0.034587     Total SCF correction =     0.005568
     SCF correction compared to forces is large: reduce conv_thr to get better values


     Computing stress (Cartesian axis) and pressure

          total   stress  (Ry/bohr**3)                   (kbar)     P=     -138.38
  -0.00128662   0.00000152   0.00000355         -189.27        0.22        0.52
   0.00000152  -0.00075231   0.00001183            0.22     -110.67        1.74
   0.00000355   0.00001183  -0.00078303            0.52        1.74     -115.19


     Entering Dynamics:    iteration =    19
                           time      =   0.0184 pico-seconds


ATOMIC_POSITIONS (angstrom)
Fe            0.0247221378        0.0021139712        0.0035446043
Se            1.5045160990        1.5205058794        1.5194940544


     kinetic energy (Ekin) =           0.00171700 Ry
     temperature           =         180.72862118 K 
     Ekin + Etot (const)   =        -730.99166444 Ry
     Ions kinetic stress =            0.81 (kbar)
                                      2.39           0.13           0.21
                                      0.13           0.01           0.01
                                      0.21           0.01           0.02



     Linear momentum :    0.0000000000   -0.0000000000    0.0000000000

     Writing config-only to output data dir ./work/try_6/calculation_try_6.save/
     NEW-OLD atomic charge density approx. for the potential

     Check: negative core charge=   -0.000007

     total cpu time spent up to now is      484.2 secs

     Self-consistent Calculation

     iteration #  1     ecut=    60.00 Ry     beta= 0.70
     Davidson diagonalization with overlap
     ethr =  1.00E-06,  avg # of iterations =  5.0

     Threshold (ethr) on eigenvalues was too large:
     Diagonalizing with lowered threshold

     Davidson diagonalization with overlap
     ethr =  4.82E-08,  avg # of iterations =  2.0

     total cpu time spent up to now is      498.2 secs

     total energy              =    -730.99353060 Ry
     estimated scf accuracy    <       0.00001540 Ry

     iteration #  2     ecut=    60.00 Ry     beta= 0.70
     Davidson diagonalization with overlap
     ethr =  4.81E-08,  avg # of iterations =  2.1

     total cpu time spent up to now is      504.1 secs

     total energy              =    -730.99352088 Ry
     estimated scf accuracy    <       0.00005154 Ry

     iteration #  3     ecut=    60.00 Ry     beta= 0.70
     Davidson diagonalization with overlap
     ethr =  4.81E-08,  avg # of iterations =  3.1

     total cpu time spent up to now is      510.3 secs

     total energy              =    -730.99353852 Ry
     estimated scf accuracy    <       0.00005497 Ry

     iteration #  4     ecut=    60.00 Ry     beta= 0.70
     Davidson diagonalization with overlap
     ethr =  4.81E-08,  avg # of iterations =  2.0

     total cpu time spent up to now is      515.6 secs

     End of self-consistent calculation

     Number of k-points >= 100: set verbosity='high' to print the bands.

     the Fermi energy is    14.2942 ev

!    total energy              =    -730.99353979 Ry
     estimated scf accuracy    <       0.00000029 Ry

     convergence has been achieved in   4 iterations

     Forces acting on atoms (cartesian axes, Ry/au):

     atom    1 type  2   force =     0.02587797    0.00010266    0.00016606
     atom    2 type  1   force =    -0.02587797   -0.00010266   -0.00016606

     Total force =     0.036598     Total SCF correction =     0.002273


     Computing stress (Cartesian axis) and pressure

          total   stress  (Ry/bohr**3)                   (kbar)     P=     -142.20
  -0.00130880   0.00000199   0.00000345         -192.53        0.29        0.51
   0.00000199  -0.00079678  -0.00000254            0.29     -117.21       -0.37
   0.00000345  -0.00000254  -0.00079448            0.51       -0.37     -116.87


     Entering Dynamics:    iteration =    20
                           time      =   0.0194 pico-seconds


ATOMIC_POSITIONS (angstrom)
Fe            0.0269734035        0.0022240685        0.0037314693
Se            1.5029238759        1.5204280123        1.5193618928


     kinetic energy (Ekin) =           0.00189128 Ry
     temperature           =         199.07334354 K 
     Ekin + Etot (const)   =        -730.99164851 Ry
     Ions kinetic stress =            0.89 (kbar)
                                      2.64           0.13           0.22
                                      0.13           0.01           0.01
                                      0.22           0.01           0.02



     Linear momentum :   -0.0000000000   -0.0000000000   -0.0000000000

     Writing config-only to output data dir ./work/try_6/calculation_try_6.save/
     NEW-OLD atomic charge density approx. for the potential

     Check: negative core charge=   -0.000007

     total cpu time spent up to now is      518.3 secs

     Self-consistent Calculation

     iteration #  1     ecut=    60.00 Ry     beta= 0.70
     Davidson diagonalization with overlap
     ethr =  1.00E-06,  avg # of iterations =  5.0

     Threshold (ethr) on eigenvalues was too large:
     Diagonalizing with lowered threshold

     Davidson diagonalization with overlap
     ethr =  1.47E-08,  avg # of iterations =  2.5

     total cpu time spent up to now is      533.1 secs

     End of self-consistent calculation

     Number of k-points >= 100: set verbosity='high' to print the bands.

     the Fermi energy is    14.2936 ev

!    total energy              =    -730.99369771 Ry
     estimated scf accuracy    <       0.00000470 Ry

     convergence has been achieved in   1 iterations

     Forces acting on atoms (cartesian axes, Ry/au):

     atom    1 type  2   force =     0.02142154   -0.00013626   -0.00023179
     atom    2 type  1   force =    -0.02142154    0.00013626    0.00023179

     Total force =     0.030297     Total SCF correction =     0.006671
     SCF correction compared to forces is large: reduce conv_thr to get better values


     Computing stress (Cartesian axis) and pressure

          total   stress  (Ry/bohr**3)                   (kbar)     P=     -125.17
  -0.00118703   0.00000253   0.00000476         -174.62        0.37        0.70
   0.00000253  -0.00067553   0.00000743            0.37      -99.37        1.09
   0.00000476   0.00000743  -0.00069018            0.70        1.09     -101.53


     Entering Dynamics:    iteration =    21
                           time      =   0.0203 pico-seconds


ATOMIC_POSITIONS (angstrom)
Fe            0.0293137527        0.0023335992        0.0039173705
Se            1.5012686479        1.5203505460        1.5192304129


     kinetic energy (Ekin) =           0.00206268 Ry
     temperature           =         217.11380903 K 
     Ekin + Etot (const)   =        -730.99163504 Ry
     Ions kinetic stress =            0.97 (kbar)
                                      2.88           0.14           0.23
                                      0.14           0.01           0.01
                                      0.23           0.01           0.02



     Linear momentum :   -0.0000000000   -0.0000000000   -0.0000000000

     Writing config-only to output data dir ./work/try_6/calculation_try_6.save/
     NEW-OLD atomic charge density approx. for the potential

     Check: negative core charge=   -0.000007

     total cpu time spent up to now is      535.7 secs

     Self-consistent Calculation

     iteration #  1     ecut=    60.00 Ry     beta= 0.70
     Davidson diagonalization with overlap
     ethr =  1.00E-06,  avg # of iterations =  5.0

     total cpu time spent up to now is      544.4 secs

     total energy              =    -730.99384426 Ry
     estimated scf accuracy    <       0.00004385 Ry

     iteration #  2     ecut=    60.00 Ry     beta= 0.70
     Davidson diagonalization with overlap
     ethr =  1.37E-07,  avg # of iterations =  3.8

     total cpu time spent up to now is      551.6 secs

     total energy              =    -730.99371876 Ry
     estimated scf accuracy    <       0.00132560 Ry

     iteration #  3     ecut=    60.00 Ry     beta= 0.70
     Davidson diagonalization with overlap
     ethr =  1.37E-07,  avg # of iterations =  4.0

     total cpu time spent up to now is      558.5 secs

     End of self-consistent calculation

     Number of k-points >= 100: set verbosity='high' to print the bands.

     the Fermi energy is    14.2971 ev

!    total energy              =    -730.99387478 Ry
     estimated scf accuracy    <       0.00000387 Ry

     convergence has been achieved in   3 iterations

     Forces acting on atoms (cartesian axes, Ry/au):

     atom    1 type  2   force =     0.02555952    0.00006573    0.00012058
     atom    2 type  1   force =    -0.02555952   -0.00006573   -0.00012058

     Total force =     0.036147     Total SCF correction =     0.005847
     SCF correction compared to forces is large: reduce conv_thr to get better values


     Computing stress (Cartesian axis) and pressure

          total   stress  (Ry/bohr**3)                   (kbar)     P=     -137.87
  -0.00126959   0.00000247   0.00000535         -186.76        0.36        0.79
   0.00000247  -0.00075563   0.00001125            0.36     -111.16        1.65
   0.00000535   0.00001125  -0.00078646            0.79        1.65     -115.69


     Entering Dynamics:    iteration =    22
                           time      =   0.0213 pico-seconds


ATOMIC_POSITIONS (angstrom)
Fe            0.0317603936        0.0024434032        0.0041037731
Se            1.4995382444        1.5202728864        1.5190985784


     kinetic energy (Ekin) =           0.00224032 Ry
     temperature           =         235.81258206 K 
     Ekin + Etot (const)   =        -730.99163446 Ry
     Ions kinetic stress =            1.05 (kbar)
                                      3.13           0.14           0.24
                                      0.14           0.01           0.01
                                      0.24           0.01           0.02



     Linear momentum :   -0.0000000000   -0.0000000000   -0.0000000000

     Writing config-only to output data dir ./work/try_6/calculation_try_6.save/
     NEW-OLD atomic charge density approx. for the potential

     Check: negative core charge=   -0.000007

     total cpu time spent up to now is      561.4 secs

     Self-consistent Calculation

     iteration #  1     ecut=    60.00 Ry     beta= 0.70
     Davidson diagonalization with overlap
     ethr =  1.00E-06,  avg # of iterations =  5.0

     total cpu time spent up to now is      571.3 secs

     total energy              =    -730.99400103 Ry
     estimated scf accuracy    <       0.00006547 Ry

     iteration #  2     ecut=    60.00 Ry     beta= 0.70
     Davidson diagonalization with overlap
     ethr =  2.05E-07,  avg # of iterations =  3.9

     total cpu time spent up to now is      578.6 secs

     total energy              =    -730.99392193 Ry
     estimated scf accuracy    <       0.00173409 Ry

     iteration #  3     ecut=    60.00 Ry     beta= 0.70
     Davidson diagonalization with overlap
     ethr =  2.05E-07,  avg # of iterations =  4.0

     total cpu time spent up to now is      585.8 secs

     total energy              =    -730.99405241 Ry
     estimated scf accuracy    <       0.00001050 Ry

     iteration #  4     ecut=    60.00 Ry     beta= 0.70
     Davidson diagonalization with overlap
     ethr =  3.28E-08,  avg # of iterations =  1.2

     total cpu time spent up to now is      590.7 secs

     End of self-consistent calculation

     Number of k-points >= 100: set verbosity='high' to print the bands.

     the Fermi energy is    14.2966 ev

!    total energy              =    -730.99405827 Ry
     estimated scf accuracy    <       0.00000034 Ry

     convergence has been achieved in   4 iterations

     Forces acting on atoms (cartesian axes, Ry/au):

     atom    1 type  2   force =     0.02673019    0.00010882    0.00015736
     atom    2 type  1   force =    -0.02673019   -0.00010882   -0.00015736

     Total force =     0.037803     Total SCF correction =     0.002936


     Computing stress (Cartesian axis) and pressure

          total   stress  (Ry/bohr**3)                   (kbar)     P=     -138.38
  -0.00126621   0.00000258   0.00000461         -186.27        0.38        0.68
   0.00000258  -0.00078010  -0.00000241            0.38     -114.76       -0.35
   0.00000461  -0.00000241  -0.00077575            0.68       -0.35     -114.12


     Entering Dynamics:    iteration =    23
                           time      =   0.0223 pico-seconds


ATOMIC_POSITIONS (angstrom)
Fe            0.0343181946        0.0025536598        0.0042908301
Se            1.4977292222        1.5201949067        1.5189662811


     kinetic energy (Ekin) =           0.00244691 Ry
     temperature           =         257.55798742 K 
     Ekin + Etot (const)   =        -730.99161136 Ry
     Ions kinetic stress =            1.15 (kbar)
                                      3.42           0.15           0.26
                                      0.15           0.01           0.01
                                      0.26           0.01           0.02



     Linear momentum :   -0.0000000000   -0.0000000000   -0.0000000000

     Writing config-only to output data dir ./work/try_6/calculation_try_6.save/
     NEW-OLD atomic charge density approx. for the potential

     Check: negative core charge=   -0.000007

     total cpu time spent up to now is      593.4 secs

     Self-consistent Calculation

     iteration #  1     ecut=    60.00 Ry     beta= 0.70
     Davidson diagonalization with overlap
     ethr =  1.00E-06,  avg # of iterations =  5.0

     Threshold (ethr) on eigenvalues was too large:
     Diagonalizing with lowered threshold

     Davidson diagonalization with overlap
     ethr =  1.65E-08,  avg # of iterations =  2.4

     total cpu time spent up to now is      608.3 secs

     End of self-consistent calculation

     Number of k-points >= 100: set verbosity='high' to print the bands.

     the Fermi energy is    14.2979 ev

!    total energy              =    -730.99424249 Ry
     estimated scf accuracy    <       0.00000530 Ry

     convergence has been achieved in   1 iterations

     Forces acting on atoms (cartesian axes, Ry/au):

     atom    1 type  2   force =     0.02195014   -0.00012720   -0.00023644
     atom    2 type  1   force =    -0.02195014    0.00012720    0.00023644

     Total force =     0.031045     Total SCF correction =     0.006656
     SCF correction compared to forces is large: reduce conv_thr to get better values


     Computing stress (Cartesian axis) and pressure

          total   stress  (Ry/bohr**3)                   (kbar)     P=     -130.45
  -0.00120665   0.00000284   0.00000556         -177.50        0.42        0.82
   0.00000284  -0.00071967   0.00000675            0.42     -105.87        0.99
   0.00000556   0.00000675  -0.00073393            0.82        0.99     -107.97


     Entering Dynamics:    iteration =    24
                           time      =   0.0232 pico-seconds


ATOMIC_POSITIONS (angstrom)
Fe            0.0369672773        0.0026633873        0.0044769038
Se            1.4958556403        1.5201173011        1.5188346792


     kinetic energy (Ekin) =           0.00264735 Ry
     temperature           =         278.65598511 K 
     Ekin + Etot (const)   =        -730.99159514 Ry
     Ions kinetic stress =            1.24 (kbar)
                                      3.70           0.16           0.27
                                      0.16           0.01           0.01
                                      0.27           0.01           0.02



     Linear momentum :    0.0000000000   -0.0000000000    0.0000000000

     Writing config-only to output data dir ./work/try_6/calculation_try_6.save/
     NEW-OLD atomic charge density approx. for the potential

     Check: negative core charge=   -0.000007

     total cpu time spent up to now is      610.9 secs

     Self-consistent Calculation

     iteration #  1     ecut=    60.00 Ry     beta= 0.70
     Davidson diagonalization with overlap
     ethr =  1.00E-06,  avg # of iterations =  5.0

     Threshold (ethr) on eigenvalues was too large:
     Diagonalizing with lowered threshold

     Davidson diagonalization with overlap
     ethr =  7.97E-08,  avg # of iterations =  1.4

     total cpu time spent up to now is      624.8 secs

     total energy              =    -730.99441937 Ry
     estimated scf accuracy    <       0.00002524 Ry

     iteration #  2     ecut=    60.00 Ry     beta= 0.70
     Davidson diagonalization with overlap
     ethr =  7.89E-08,  avg # of iterations =  3.8

     total cpu time spent up to now is      631.9 secs

     total energy              =    -730.99440534 Ry
     estimated scf accuracy    <       0.00071820 Ry

     iteration #  3     ecut=    60.00 Ry     beta= 0.70
     Davidson diagonalization with overlap
     ethr =  7.89E-08,  avg # of iterations =  4.0

     total cpu time spent up to now is      638.9 secs

     End of self-consistent calculation

     Number of k-points >= 100: set verbosity='high' to print the bands.

     the Fermi energy is    14.2966 ev

!    total energy              =    -730.99444615 Ry
     estimated scf accuracy    <       0.00000299 Ry

     convergence has been achieved in   3 iterations

     Forces acting on atoms (cartesian axes, Ry/au):

     atom    1 type  2   force =     0.02670611    0.00009062    0.00013040
     atom    2 type  1   force =    -0.02670611   -0.00009062   -0.00013040

     Total force =     0.037769     Total SCF correction =     0.004634
     SCF correction compared to forces is large: reduce conv_thr to get better values


     Computing stress (Cartesian axis) and pressure

          total   stress  (Ry/bohr**3)                   (kbar)     P=     -134.46
  -0.00122830   0.00000263   0.00000579         -180.69        0.39        0.85
   0.00000263  -0.00074361   0.00000872            0.39     -109.39        1.28
   0.00000579   0.00000872  -0.00077027            0.85        1.28     -113.31


     Entering Dynamics:    iteration =    25
                           time      =   0.0242 pico-seconds


ATOMIC_POSITIONS (angstrom)
Fe            0.0397274200        0.0027734917        0.0046635199
Se            1.4939035105        1.5200394290        1.5187026937


     kinetic energy (Ekin) =           0.00285563 Ry
     temperature           =         300.57839352 K 
     Ekin + Etot (const)   =        -730.99159052 Ry
     Ions kinetic stress =            1.34 (kbar)
                                      3.99           0.16           0.28
                                      0.16           0.01           0.01
                                      0.28           0.01           0.02



     Linear momentum :    0.0000000000   -0.0000000000    0.0000000000

     Writing config-only to output data dir ./work/try_6/calculation_try_6.save/
     NEW-OLD atomic charge density approx. for the potential

     Check: negative core charge=   -0.000007

     total cpu time spent up to now is      641.6 secs

     Self-consistent Calculation

     iteration #  1     ecut=    60.00 Ry     beta= 0.70
     Davidson diagonalization with overlap
     ethr =  1.00E-06,  avg # of iterations =  5.0

     total cpu time spent up to now is      650.8 secs

     total energy              =    -730.99461969 Ry
     estimated scf accuracy    <       0.00005732 Ry

     iteration #  2     ecut=    60.00 Ry     beta= 0.70
     Davidson diagonalization with overlap
     ethr =  1.79E-07,  avg # of iterations =  3.8

     total cpu time spent up to now is      657.8 secs

     total energy              =    -730.99446403 Ry
     estimated scf accuracy    <       0.00154708 Ry

     iteration #  3     ecut=    60.00 Ry     beta= 0.70
     Davidson diagonalization with overlap
     ethr =  1.79E-07,  avg # of iterations =  4.0

     total cpu time spent up to now is      664.6 secs

     End of self-consistent calculation

     Number of k-points >= 100: set verbosity='high' to print the bands.

     the Fermi energy is    14.3018 ev

!    total energy              =    -730.99465501 Ry
     estimated scf accuracy    <       0.00000748 Ry

     convergence has been achieved in   3 iterations

     Forces acting on atoms (cartesian axes, Ry/au):

     atom    1 type  2   force =     0.02820994    0.00010882    0.00016907
     atom    2 type  1   force =    -0.02820994   -0.00010882   -0.00016907

     Total force =     0.039896     Total SCF correction =     0.005293
     SCF correction compared to forces is large: reduce conv_thr to get better values


     Computing stress (Cartesian axis) and pressure

          total   stress  (Ry/bohr**3)                   (kbar)     P=     -147.39
  -0.00130820   0.00000216   0.00000590         -192.44        0.32        0.87
   0.00000216  -0.00082710   0.00001195            0.32     -121.67        1.76
   0.00000590   0.00001195  -0.00087046            0.87        1.76     -128.05


     Entering Dynamics:    iteration =    26
                           time      =   0.0252 pico-seconds


ATOMIC_POSITIONS (angstrom)
Fe            0.0426048764        0.0028840487        0.0048508390
Se            1.4918684098        1.5199612368        1.5185702110


     kinetic energy (Ekin) =           0.00310040 Ry
     temperature           =         326.34302493 K 
     Ekin + Etot (const)   =        -730.99155461 Ry
     Ions kinetic stress =            1.45 (kbar)
                                      4.34           0.17           0.29
                                      0.17           0.01           0.01
                                      0.29           0.01           0.02



     Linear momentum :    0.0000000000   -0.0000000000    0.0000000000

     Writing config-only to output data dir ./work/try_6/calculation_try_6.save/
     NEW-OLD atomic charge density approx. for the potential

     Check: negative core charge=   -0.000007

     total cpu time spent up to now is      667.3 secs

     Self-consistent Calculation

     iteration #  1     ecut=    60.00 Ry     beta= 0.70
     Davidson diagonalization with overlap
     ethr =  1.00E-06,  avg # of iterations =  5.0

     total cpu time spent up to now is      676.9 secs

     total energy              =    -730.99469398 Ry
     estimated scf accuracy    <       0.00022435 Ry

     iteration #  2     ecut=    60.00 Ry     beta= 0.70
     Davidson diagonalization with overlap
     ethr =  7.01E-07,  avg # of iterations =  4.1

     total cpu time spent up to now is      684.2 secs

     total energy              =    -730.99433790 Ry
     estimated scf accuracy    <       0.00670918 Ry

     iteration #  3     ecut=    60.00 Ry     beta= 0.70
     Davidson diagonalization with overlap
     ethr =  7.01E-07,  avg # of iterations =  4.0

     total cpu time spent up to now is      691.6 secs

     total energy              =    -730.99487309 Ry
     estimated scf accuracy    <       0.00001032 Ry

     iteration #  4     ecut=    60.00 Ry     beta= 0.70
     Davidson diagonalization with overlap
     ethr =  3.22E-08,  avg # of iterations =  2.0

     total cpu time spent up to now is      697.0 secs

     End of self-consistent calculation

     Number of k-points >= 100: set verbosity='high' to print the bands.

     the Fermi energy is    14.2993 ev

!    total energy              =    -730.99487962 Ry
     estimated scf accuracy    <       0.00000040 Ry

     convergence has been achieved in   4 iterations

     Forces acting on atoms (cartesian axes, Ry/au):

     atom    1 type  2   force =     0.02812067    0.00011099    0.00013513
     atom    2 type  1   force =    -0.02812067   -0.00011099   -0.00013513

     Total force =     0.039769     Total SCF correction =     0.003000


     Computing stress (Cartesian axis) and pressure

          total   stress  (Ry/bohr**3)                   (kbar)     P=     -137.05
  -0.00123123   0.00000333   0.00000631         -181.12        0.49        0.93
   0.00000333  -0.00078493  -0.00000099            0.49     -115.47       -0.15
   0.00000631  -0.00000099  -0.00077882            0.93       -0.15     -114.57


     Entering Dynamics:    iteration =    27
                           time      =   0.0261 pico-seconds


ATOMIC_POSITIONS (angstrom)
Fe            0.0455992753        0.0029950673        0.0050387201
Se            1.4897506007        1.5198827182        1.5184373308


     kinetic energy (Ekin) =           0.00336199 Ry
     temperature           =         353.87777838 K 
     Ekin + Etot (const)   =        -730.99151762 Ry
     Ions kinetic stress =            1.58 (kbar)
                                      4.70           0.18           0.30
                                      0.18           0.01           0.01
                                      0.30           0.01           0.02



     Linear momentum :    0.0000000000    0.0000000000    0.0000000000

     Writing config-only to output data dir ./work/try_6/calculation_try_6.save/
     NEW-OLD atomic charge density approx. for the potential

     Check: negative core charge=   -0.000007

     total cpu time spent up to now is      699.7 secs

     Self-consistent Calculation

     iteration #  1     ecut=    60.00 Ry     beta= 0.70
     Davidson diagonalization with overlap
     ethr =  1.00E-06,  avg # of iterations =  5.0

     Threshold (ethr) on eigenvalues was too large:
     Diagonalizing with lowered threshold

     Davidson diagonalization with overlap
     ethr =  2.12E-08,  avg # of iterations =  2.2

     total cpu time spent up to now is      714.8 secs

     End of self-consistent calculation

     Number of k-points >= 100: set verbosity='high' to print the bands.

     the Fermi energy is    14.3004 ev

!    total energy              =    -730.99510593 Ry
     estimated scf accuracy    <       0.00000690 Ry

     convergence has been achieved in   1 iterations

     Forces acting on atoms (cartesian axes, Ry/au):

     atom    1 type  2   force =     0.02230946   -0.00012963   -0.00024460
     atom    2 type  1   force =    -0.02230946    0.00012963    0.00024460

     Total force =     0.031553     Total SCF correction =     0.007806
     SCF correction compared to forces is large: reduce conv_thr to get better values


     Computing stress (Cartesian axis) and pressure

          total   stress  (Ry/bohr**3)                   (kbar)     P=     -124.68
  -0.00113990   0.00000352   0.00000694         -167.69        0.52        1.02
   0.00000352  -0.00069341   0.00000414            0.52     -102.00        0.61
   0.00000694   0.00000414  -0.00070940            1.02        0.61     -104.36


     Entering Dynamics:    iteration =    28
                           time      =   0.0271 pico-seconds


ATOMIC_POSITIONS (angstrom)
Fe            0.0486864503        0.0031055467        0.0052255839
Se            1.4875671751        1.5198045808        1.5183051700


     kinetic energy (Ekin) =           0.00360506 Ry
     temperature           =         379.46256647 K 
     Ekin + Etot (const)   =        -730.99150087 Ry
     Ions kinetic stress =            1.69 (kbar)
                                      5.05           0.18           0.31
                                      0.18           0.01           0.01
                                      0.31           0.01           0.02



     Linear momentum :    0.0000000000    0.0000000000   -0.0000000000

     Writing config-only to output data dir ./work/try_6/calculation_try_6.save/
     NEW-OLD atomic charge density approx. for the potential

     Check: negative core charge=   -0.000007

     total cpu time spent up to now is      717.5 secs

     Self-consistent Calculation

     iteration #  1     ecut=    60.00 Ry     beta= 0.70
     Davidson diagonalization with overlap
     ethr =  1.00E-06,  avg # of iterations =  5.0

     total cpu time spent up to now is      727.0 secs

     total energy              =    -730.99532658 Ry
     estimated scf accuracy    <       0.00003201 Ry

     iteration #  2     ecut=    60.00 Ry     beta= 0.70
     Davidson diagonalization with overlap
     ethr =  1.00E-07,  avg # of iterations =  3.9

     total cpu time spent up to now is      734.2 secs

     total energy              =    -730.99530149 Ry
     estimated scf accuracy    <       0.00095019 Ry

     iteration #  3     ecut=    60.00 Ry     beta= 0.70
     Davidson diagonalization with overlap
     ethr =  1.00E-07,  avg # of iterations =  4.0

     total cpu time spent up to now is      741.2 secs

     End of self-consistent calculation

     Number of k-points >= 100: set verbosity='high' to print the bands.

     the Fermi energy is    14.2993 ev

!    total energy              =    -730.99536269 Ry
     estimated scf accuracy    <       0.00000220 Ry

     convergence has been achieved in   3 iterations

     Forces acting on atoms (cartesian axes, Ry/au):

     atom    1 type  2   force =     0.02754003    0.00007706    0.00009986
     atom    2 type  1   force =    -0.02754003   -0.00007706   -0.00009986

     Total force =     0.038948     Total SCF correction =     0.006261
     SCF correction compared to forces is large: reduce conv_thr to get better values


     Computing stress (Cartesian axis) and pressure

          total   stress  (Ry/bohr**3)                   (kbar)     P=     -132.86
  -0.00118881   0.00000331   0.00000701         -174.88        0.49        1.03
   0.00000331  -0.00074785   0.00000459            0.49     -110.01        0.68
   0.00000701   0.00000459  -0.00077279            1.03        0.68     -113.68


     Entering Dynamics:    iteration =    29
                           time      =   0.0281 pico-seconds


ATOMIC_POSITIONS (angstrom)
Fe            0.0518881531        0.0032163467        0.0054128631
Se            1.4853027489        1.5197262168        1.5181727156


     kinetic energy (Ekin) =           0.00385369 Ry
     temperature           =         405.63341490 K 
     Ekin + Etot (const)   =        -730.99150900 Ry
     Ions kinetic stress =            1.81 (kbar)
                                      5.40           0.19           0.32
                                      0.19           0.01           0.01
                                      0.32           0.01           0.02



     Linear momentum :    0.0000000000    0.0000000000   -0.0000000000

     Writing config-only to output data dir ./work/try_6/calculation_try_6.save/
     NEW-OLD atomic charge density approx. for the potential

     Check: negative core charge=   -0.000007

     total cpu time spent up to now is      743.9 secs

     Self-consistent Calculation

     iteration #  1     ecut=    60.00 Ry     beta= 0.70
     Davidson diagonalization with overlap
     ethr =  1.00E-06,  avg # of iterations =  5.0

     Threshold (ethr) on eigenvalues was too large:
     Diagonalizing with lowered threshold

     Davidson diagonalization with overlap
     ethr =  7.49E-08,  avg # of iterations =  1.3

     total cpu time spent up to now is      758.3 secs

     total energy              =    -730.99560751 Ry
     estimated scf accuracy    <       0.00002418 Ry

     iteration #  2     ecut=    60.00 Ry     beta= 0.70
     Davidson diagonalization with overlap
     ethr =  7.56E-08,  avg # of iterations =  3.3

     total cpu time spent up to now is      765.2 secs

     total energy              =    -730.99556070 Ry
     estimated scf accuracy    <       0.00047456 Ry

     iteration #  3     ecut=    60.00 Ry     beta= 0.70
     Davidson diagonalization with overlap
     ethr =  7.56E-08,  avg # of iterations =  4.0

     total cpu time spent up to now is      772.1 secs

     End of self-consistent calculation

     Number of k-points >= 100: set verbosity='high' to print the bands.

     the Fermi energy is    14.3048 ev

!    total energy              =    -730.99562327 Ry
     estimated scf accuracy    <       0.00000863 Ry

     convergence has been achieved in   3 iterations

     Forces acting on atoms (cartesian axes, Ry/au):

     atom    1 type  2   force =     0.02975119    0.00011703    0.00016756
     atom    2 type  1   force =    -0.02975119   -0.00011703   -0.00016756

     Total force =     0.042076     Total SCF correction =     0.006046
     SCF correction compared to forces is large: reduce conv_thr to get better values


     Computing stress (Cartesian axis) and pressure

          total   stress  (Ry/bohr**3)                   (kbar)     P=     -149.85
  -0.00129502   0.00000309   0.00000692         -190.50        0.46        1.02
   0.00000309  -0.00086271   0.00000544            0.46     -126.91        0.80
   0.00000692   0.00000544  -0.00089825            1.02        0.80     -132.14


     Entering Dynamics:    iteration =    30
                           time      =   0.0290 pico-seconds


ATOMIC_POSITIONS (angstrom)
Fe            0.0552135791        0.0033276333        0.0056008390
Se            1.4829508186        1.5196475086        1.5180397683


     kinetic energy (Ekin) =           0.00414992 Ry
     temperature           =         436.81329447 K 
     Ekin + Etot (const)   =        -730.99147335 Ry
     Ions kinetic stress =            1.95 (kbar)
                                      5.81           0.20           0.33
                                      0.20           0.01           0.01
                                      0.33           0.01           0.02



     Linear momentum :   -0.0000000000    0.0000000000   -0.0000000000

     The maximum number of steps has been reached.

     End of molecular dynamics calculation

     diffusion coefficients :
     atom     1   D =       0.00000177 cm^2/s
     atom     2   D =       0.00000089 cm^2/s

     < D > =       0.00000133 cm^2/s

     Writing all to output data dir ./work/try_6/calculation_try_6.save/

     init_run     :      2.26s CPU      2.38s WALL (       1 calls)
     electrons    :    644.79s CPU    691.19s WALL (      30 calls)
     update_pot   :      4.69s CPU      4.79s WALL (      29 calls)
     forces       :     11.32s CPU     12.47s WALL (      30 calls)
     stress       :     52.04s CPU     53.02s WALL (      30 calls)

     Called by init_run:
     wfcinit      :      1.70s CPU      1.80s WALL (       1 calls)
     potinit      :      0.14s CPU      0.15s WALL (       1 calls)
     hinit0       :      0.36s CPU      0.37s WALL (       1 calls)

     Called by electrons:
     c_bands      :    551.08s CPU    592.59s WALL (      97 calls)
     sum_band     :     81.09s CPU     85.13s WALL (      97 calls)
     v_of_rho     :      0.63s CPU      0.66s WALL (     113 calls)
     newd         :      1.70s CPU      2.20s WALL (     113 calls)
     PAW_pot      :     18.42s CPU     18.97s WALL (     142 calls)
     mix_rho      :      0.03s CPU      0.04s WALL (      97 calls)

     Called by c_bands:
     init_us_2    :     17.10s CPU     18.32s WALL (   73840 calls)
     init_us_2:cp :     17.05s CPU     18.25s WALL (   73840 calls)
     cegterg      :    525.60s CPU    565.98s WALL (   25220 calls)

     Called by *egterg:
     cdiaghg      :     34.90s CPU     36.57s WALL (  105102 calls)
     h_psi        :    386.13s CPU    403.88s WALL (  116542 calls)
     s_psi        :     16.48s CPU     19.73s WALL (  116542 calls)
     g_psi        :      1.74s CPU      1.80s WALL (   91062 calls)

     Called by h_psi:
     h_psi:calbec :     19.88s CPU     26.12s WALL (  116542 calls)
     vloc_psi     :    345.55s CPU    352.42s WALL (  116542 calls)
     add_vuspsi   :     19.11s CPU     23.06s WALL (  116542 calls)

     General routines
     calbec       :     34.94s CPU     44.05s WALL (  188302 calls)
     fft          :      0.44s CPU      0.45s WALL (    2036 calls)
     ffts         :      0.02s CPU      0.02s WALL (      97 calls)
     fftw         :    357.88s CPU    364.63s WALL ( 3351078 calls)

     Parallel routines

     PWSCF        :  12m 4.86s CPU  12m54.41s WALL


   This run was terminated on:  18:50:34  30Dec2024            

=------------------------------------------------------------------------------=
   JOB DONE.
=------------------------------------------------------------------------------=
