
     Program PWSCF v.7.1 starts on 30Dec2024 at 17:30:20 

     This program is part of the open-source Quantum ESPRESSO suite
     for quantum simulation of materials; please cite
         "P. Giannozzi et al., J. Phys.:Condens. Matter 21 395502 (2009);
         "P. Giannozzi et al., J. Phys.:Condens. Matter 29 465901 (2017);
         "P. Giannozzi et al., J. Chem. Phys. 152 154105 (2020);
          URL http://www.quantum-espresso.org", 
     in publications or presentations arising from this work. More details at
     http://www.quantum-espresso.org/quote

     Parallel version (MPI), running on     1 processors

     MPI processes distributed on     1 nodes
     0 MiB available memory on the printing compute node when the environment starts

     Waiting for input...
     Reading input from standard input
Warning: card &CELL ignored
Warning: card / ignored

     Current dimensions of program PWSCF are:
     Max number of different atomic species (ntypx) = 10
     Max number of k-points (npk) =  40000
     Max angular momentum in pseudopotentials (lmaxx) =  4
     Message from routine iosys:
     BEWARE:  force calculation with tetrahedra (not recommanded)
     Message from routine iosys:
     BEWARE: stress calculation with tetrahedra (not recommanded)
     file Se.pbe-dn-kjpaw_psl.1.0.0.UPF: wavefunction(s)  4S 4P 3D renormalized
     file Fe.pbe-spn-kjpaw_psl.1.0.0.UPF: wavefunction(s)  3P 3D renormalized

     Subspace diagonalization in iterative solution of the eigenvalue problem:
     a serial algorithm will be used


     G-vector sticks info
     --------------------
     sticks:   dense  smooth     PW     G-vecs:    dense   smooth      PW
     Sum         649     649    199                12165    12165    2113

     Using Slab Decomposition



     bravais-lattice index     =            0
     lattice parameter (alat)  =       5.8468  a.u.
     unit-cell volume          =     193.4671 (a.u.)^3
     number of atoms/cell      =            2
     number of atomic types    =            2
     number of electrons       =        32.00
     number of Kohn-Sham states=           20
     kinetic-energy cutoff     =      60.0000  Ry
     charge density cutoff     =     240.0000  Ry
     scf convergence threshold =      1.0E-05
     mixing beta               =       0.7000
     number of iterations used =            8  plain     mixing
     energy convergence thresh.=      0.0E+00
     force convergence thresh. =      0.0E+00
     Exchange-correlation= SLA  PW   PBX  PBC
                           (   1   4   3   4   0   0   0)
     nstep                     =           30


     celldm(1)=   5.846816  celldm(2)=   0.000000  celldm(3)=   0.000000
     celldm(4)=   0.000000  celldm(5)=   0.000000  celldm(6)=   0.000000

     crystal axes: (cart. coord. in units of alat)
               a(1) = (   1.000000   0.000000   0.000000 )  
               a(2) = (  -0.000000   0.983840   0.000000 )  
               a(3) = (   0.000000   0.000000   0.983840 )  

     reciprocal axes: (cart. coord. in units 2 pi/alat)
               b(1) = (  1.000000  0.000000 -0.000000 )  
               b(2) = (  0.000000  1.016426  0.000000 )  
               b(3) = (  0.000000 -0.000000  1.016426 )  


     PseudoPot. # 1 for Se read from file:
     ./pseudo/Se.pbe-dn-kjpaw_psl.1.0.0.UPF
     MD5 check sum: ac240dd2bae32a30e0bf3a38df9c8785
     Pseudo is Projector augmented-wave + core cor, Zval = 16.0
     Generated using &quot;atomic&quot; code by A. Dal Corso  v.6.3
     Shape of augmentation charge: PSQ
     Using radial grid of 1211 points,  6 beta functions with: 
                l(1) =   0
                l(2) =   0
                l(3) =   1
                l(4) =   1
                l(5) =   2
                l(6) =   2
     Q(r) pseudized with 0 coefficients 


     PseudoPot. # 2 for Fe read from file:
     ./pseudo/Fe.pbe-spn-kjpaw_psl.1.0.0.UPF
     MD5 check sum: fc81f059e5c5069939230b1155715ae8
     Pseudo is Projector augmented-wave + core cor, Zval = 16.0
     Generated using &quot;atomic&quot; code by A. Dal Corso  v.6.3
     Shape of augmentation charge: PSQ
     Using radial grid of 1191 points,  6 beta functions with: 
                l(1) =   0
                l(2) =   0
                l(3) =   1
                l(4) =   1
                l(5) =   2
                l(6) =   2
     Q(r) pseudized with 0 coefficients 


     atomic species   valence    mass     pseudopotential
        Se            16.00    78.96000     Se( 1.00)
        Fe            16.00    55.84500     Fe( 1.00)

     No symmetry found



   Cartesian axes

     site n.     atom                  positions (alat units)
         1           Fe  tau(   1) = (   0.0000000   0.0000000   0.0000000  )
         2           Se  tau(   2) = (   0.4919199   0.4919199   0.4919199  )

     number of k points=   260 (tetrahedron method)

     Number of k-points >= 100: set verbosity='high' to print them.

     Dense  grid:    12165 G-vectors     FFT dimensions: (  30,  30,  30)

     Estimated max dynamical RAM per process >     168.83 MB

     Check: negative core charge=   -0.000008

     Initial potential from superposition of free atoms

     starting charge      31.9995, renormalised to      32.0000
     Starting wfcs are   19 randomized atomic wfcs +    1 random wfcs
     Checking if some PAW data can be deallocated... 

     total cpu time spent up to now is        2.8 secs

     Self-consistent Calculation

     iteration #  1     ecut=    60.00 Ry     beta= 0.70
     Davidson diagonalization with overlap
     ethr =  1.00E-02,  avg # of iterations =  3.2

     total cpu time spent up to now is       10.0 secs

     total energy              =    -730.41692216 Ry
     estimated scf accuracy    <       0.76222526 Ry

     iteration #  2     ecut=    60.00 Ry     beta= 0.70
     Davidson diagonalization with overlap
     ethr =  2.38E-03,  avg # of iterations =  4.8

     total cpu time spent up to now is       18.9 secs

     total energy              =    -729.78567835 Ry
     estimated scf accuracy    <      13.25151086 Ry

     iteration #  3     ecut=    60.00 Ry     beta= 0.70
     Davidson diagonalization with overlap
     ethr =  2.38E-03,  avg # of iterations =  4.3

     total cpu time spent up to now is       27.6 secs

     total energy              =    -730.99666838 Ry
     estimated scf accuracy    <       0.08930416 Ry

     iteration #  4     ecut=    60.00 Ry     beta= 0.70
     Davidson diagonalization with overlap
     ethr =  2.79E-04,  avg # of iterations =  1.9

     total cpu time spent up to now is       33.6 secs

     total energy              =    -731.00366857 Ry
     estimated scf accuracy    <       0.00221103 Ry

     iteration #  5     ecut=    60.00 Ry     beta= 0.70
     Davidson diagonalization with overlap
     ethr =  6.91E-06,  avg # of iterations =  4.7

     total cpu time spent up to now is       41.6 secs

     total energy              =    -731.00425109 Ry
     estimated scf accuracy    <       0.00021759 Ry

     iteration #  6     ecut=    60.00 Ry     beta= 0.70
     Davidson diagonalization with overlap
     ethr =  6.80E-07,  avg # of iterations =  2.2

     total cpu time spent up to now is       48.1 secs

     total energy              =    -731.00431491 Ry
     estimated scf accuracy    <       0.00005531 Ry

     iteration #  7     ecut=    60.00 Ry     beta= 0.70
     Davidson diagonalization with overlap
     ethr =  1.73E-07,  avg # of iterations =  1.1

     total cpu time spent up to now is       53.7 secs

     total energy              =    -731.00430840 Ry
     estimated scf accuracy    <       0.00001520 Ry

     iteration #  8     ecut=    60.00 Ry     beta= 0.70
     Davidson diagonalization with overlap
     ethr =  4.75E-08,  avg # of iterations =  2.1

     total cpu time spent up to now is       59.9 secs

     End of self-consistent calculation

     Number of k-points >= 100: set verbosity='high' to print the bands.

     the Fermi energy is    15.8420 ev

!    total energy              =    -731.00430417 Ry
     estimated scf accuracy    <       0.00000127 Ry

     convergence has been achieved in   8 iterations

     Forces acting on atoms (cartesian axes, Ry/au):

     atom    1 type  2   force =     0.00284503   -0.00000279   -0.00007104
     atom    2 type  1   force =    -0.00284503    0.00000279    0.00007104

     Total force =     0.004025     Total SCF correction =     0.000820
     SCF correction compared to forces is large: reduce conv_thr to get better values


     Computing stress (Cartesian axis) and pressure

          total   stress  (Ry/bohr**3)                   (kbar)     P=      -76.33
  -0.00060952   0.00000329  -0.00000276          -89.66        0.48       -0.41
   0.00000329  -0.00047317   0.00000378            0.48      -69.61        0.56
  -0.00000276   0.00000378  -0.00047394           -0.41        0.56      -69.72


     Molecular Dynamics Calculation

     Starting temperature  =    10.00 K

     temperature is set once at start

     mass Se               =    78.96
     mass Fe               =    55.84
     Time step             =    20.00 a.u.,  0.9676 femto-seconds

     Entering Dynamics:    iteration =     1
                           time      =   0.0010 pico-seconds


ATOMIC_POSITIONS (angstrom)
Fe            0.0004478540        0.0001150885        0.0001905426
Se            1.5216842522        1.5219196029        1.5218662375


     kinetic energy (Ekin) =           0.00009500 Ry
     temperature           =          10.00000000 K 
     Ekin + Etot (const)   =        -731.00420917 Ry
     Ions kinetic stress =            0.05 (kbar)
                                      0.12           0.03           0.05
                                      0.03           0.01           0.01
                                      0.05           0.01           0.02



     Linear momentum :   -0.0000000000    0.0000000000    0.0000000000

     File ./work/try_1/calculation_try_1.msd.dat deleted, as requested

     Writing config-only to output data dir ./work/try_1/calculation_try_1.save/
     NEW-OLD atomic charge density approx. for the potential

     Check: negative core charge=   -0.000008

     total cpu time spent up to now is       62.4 secs

     Self-consistent Calculation

     iteration #  1     ecut=    60.00 Ry     beta= 0.70
     Davidson diagonalization with overlap
     ethr =  1.00E-06,  avg # of iterations =  3.0

     total cpu time spent up to now is       70.2 secs

     total energy              =    -731.00426542 Ry
     estimated scf accuracy    <       0.00007048 Ry

     iteration #  2     ecut=    60.00 Ry     beta= 0.70
     Davidson diagonalization with overlap
     ethr =  2.20E-07,  avg # of iterations =  4.2

     total cpu time spent up to now is       78.6 secs

     total energy              =    -731.00407440 Ry
     estimated scf accuracy    <       0.00202727 Ry

     iteration #  3     ecut=    60.00 Ry     beta= 0.70
     Davidson diagonalization with overlap
     ethr =  2.20E-07,  avg # of iterations =  4.0

     total cpu time spent up to now is       86.6 secs

     End of self-consistent calculation

     Number of k-points >= 100: set verbosity='high' to print the bands.

     the Fermi energy is    15.8445 ev

!    total energy              =    -731.00430987 Ry
     estimated scf accuracy    <       0.00000011 Ry

     convergence has been achieved in   3 iterations

     Forces acting on atoms (cartesian axes, Ry/au):

     atom    1 type  2   force =     0.00208290   -0.00016473   -0.00015880
     atom    2 type  1   force =    -0.00208290    0.00016473    0.00015880

     Total force =     0.002963     Total SCF correction =     0.003085
     SCF correction compared to forces is large: reduce conv_thr to get better values


     Computing stress (Cartesian axis) and pressure

          total   stress  (Ry/bohr**3)                   (kbar)     P=      -80.92
  -0.00064038   0.00000356  -0.00000253          -94.20        0.52       -0.37
   0.00000356  -0.00050348   0.00000370            0.52      -74.06        0.54
  -0.00000253   0.00000370  -0.00050633           -0.37        0.54      -74.48


     Entering Dynamics:    iteration =     2
                           time      =   0.0019 pico-seconds


ATOMIC_POSITIONS (angstrom)
Fe            0.0009043700        0.0002294919        0.0003804248
Se            1.5213613781        1.5218386903        1.5217319420


     kinetic energy (Ekin) =           0.00009846 Ry
     temperature           =          10.36337195 K 
     Ekin + Etot (const)   =        -731.00421141 Ry
     Ions kinetic stress =            0.05 (kbar)
                                      0.12           0.03           0.05
                                      0.03           0.01           0.01
                                      0.05           0.01           0.02



     Linear momentum :   -0.0000000000    0.0000000000    0.0000000000

     Writing config-only to output data dir ./work/try_1/calculation_try_1.save/
     NEW-OLD atomic charge density approx. for the potential

     Check: negative core charge=   -0.000008

     total cpu time spent up to now is       89.1 secs

     Self-consistent Calculation

     iteration #  1     ecut=    60.00 Ry     beta= 0.70
     Davidson diagonalization with overlap
     ethr =  1.00E-06,  avg # of iterations =  3.0

     Threshold (ethr) on eigenvalues was too large:
     Diagonalizing with lowered threshold

     Davidson diagonalization with overlap
     ethr =  6.01E-09,  avg # of iterations =  4.0

     total cpu time spent up to now is      104.4 secs

     End of self-consistent calculation

     Number of k-points >= 100: set verbosity='high' to print the bands.

     the Fermi energy is    15.8417 ev

!    total energy              =    -731.00430940 Ry
     estimated scf accuracy    <       0.00000194 Ry

     convergence has been achieved in   1 iterations

     Forces acting on atoms (cartesian axes, Ry/au):

     atom    1 type  2   force =     0.00182975   -0.00015562   -0.00018148
     atom    2 type  1   force =    -0.00182975    0.00015562    0.00018148

     Total force =     0.002610     Total SCF correction =     0.001008
     SCF correction compared to forces is large: reduce conv_thr to get better values


     Computing stress (Cartesian axis) and pressure

          total   stress  (Ry/bohr**3)                   (kbar)     P=      -71.86
  -0.00057944   0.00000226  -0.00000371          -85.24        0.33       -0.55
   0.00000226  -0.00044621   0.00000405            0.33      -65.64        0.60
  -0.00000371   0.00000405  -0.00043987           -0.55        0.60      -64.71


     Entering Dynamics:    iteration =     3
                           time      =   0.0029 pico-seconds


ATOMIC_POSITIONS (angstrom)
Fe            0.0013684952        0.0003432482        0.0005695522
Se            1.5210331224        1.5217582354        1.5215981803


     kinetic energy (Ekin) =           0.00010117 Ry
     temperature           =          10.64928962 K 
     Ekin + Etot (const)   =        -731.00420822 Ry
     Ions kinetic stress =            0.05 (kbar)
                                      0.12           0.03           0.05
                                      0.03           0.01           0.01
                                      0.05           0.01           0.02



     Linear momentum :    0.0000000000    0.0000000000   -0.0000000000

     Writing config-only to output data dir ./work/try_1/calculation_try_1.save/
     NEW-OLD atomic charge density approx. for the potential

     Check: negative core charge=   -0.000008

     total cpu time spent up to now is      106.9 secs

     Self-consistent Calculation

     iteration #  1     ecut=    60.00 Ry     beta= 0.70
     Davidson diagonalization with overlap
     ethr =  1.00E-06,  avg # of iterations =  3.0

     total cpu time spent up to now is      114.7 secs

     total energy              =    -731.00424603 Ry
     estimated scf accuracy    <       0.00010770 Ry

     iteration #  2     ecut=    60.00 Ry     beta= 0.70
     Davidson diagonalization with overlap
     ethr =  3.37E-07,  avg # of iterations =  4.1

     total cpu time spent up to now is      122.8 secs

     total energy              =    -731.00397017 Ry
     estimated scf accuracy    <       0.00310369 Ry

     iteration #  3     ecut=    60.00 Ry     beta= 0.70
     Davidson diagonalization with overlap
     ethr =  3.37E-07,  avg # of iterations =  4.0

     total cpu time spent up to now is      130.9 secs

     End of self-consistent calculation

     Number of k-points >= 100: set verbosity='high' to print the bands.

     the Fermi energy is    15.8446 ev

!    total energy              =    -731.00431589 Ry
     estimated scf accuracy    <       0.00000035 Ry

     convergence has been achieved in   3 iterations

     Forces acting on atoms (cartesian axes, Ry/au):

     atom    1 type  2   force =     0.00211786   -0.00013035   -0.00012360
     atom    2 type  1   force =    -0.00211786    0.00013035    0.00012360

     Total force =     0.003006     Total SCF correction =     0.003291
     SCF correction compared to forces is large: reduce conv_thr to get better values


     Computing stress (Cartesian axis) and pressure

          total   stress  (Ry/bohr**3)                   (kbar)     P=      -79.74
  -0.00063280   0.00000199  -0.00000384          -93.09        0.29       -0.56
   0.00000199  -0.00050232   0.00000448            0.29      -73.89        0.66
  -0.00000384   0.00000448  -0.00049109           -0.56        0.66      -72.24


     Entering Dynamics:    iteration =     4
                           time      =   0.0039 pico-seconds


ATOMIC_POSITIONS (angstrom)
Fe            0.0018414277        0.0004564624        0.0007581657
Se            1.5206986377        1.5216781638        1.5214647821


     kinetic energy (Ekin) =           0.00010398 Ry
     temperature           =          10.94526118 K 
     Ekin + Etot (const)   =        -731.00421191 Ry
     Ions kinetic stress =            0.05 (kbar)
                                      0.13           0.03           0.05
                                      0.03           0.01           0.01
                                      0.05           0.01           0.02



     Linear momentum :    0.0000000000    0.0000000000   -0.0000000000

     Writing config-only to output data dir ./work/try_1/calculation_try_1.save/
     NEW-OLD atomic charge density approx. for the potential

     Check: negative core charge=   -0.000008

     total cpu time spent up to now is      133.4 secs

     Self-consistent Calculation

     iteration #  1     ecut=    60.00 Ry     beta= 0.70
     Davidson diagonalization with overlap
     ethr =  1.00E-06,  avg # of iterations =  3.0

     Threshold (ethr) on eigenvalues was too large:
     Diagonalizing with lowered threshold

     Davidson diagonalization with overlap
     ethr =  1.23E-08,  avg # of iterations =  3.4

     total cpu time spent up to now is      148.2 secs

     End of self-consistent calculation

     Number of k-points >= 100: set verbosity='high' to print the bands.

     the Fermi energy is    15.8411 ev

!    total energy              =    -731.00431411 Ry
     estimated scf accuracy    <       0.00000402 Ry

     convergence has been achieved in   1 iterations

     Forces acting on atoms (cartesian axes, Ry/au):

     atom    1 type  2   force =     0.00184076   -0.00016432   -0.00018108
     atom    2 type  1   force =    -0.00184076    0.00016432    0.00018108

     Total force =     0.002626     Total SCF correction =     0.001186
     SCF correction compared to forces is large: reduce conv_thr to get better values


     Computing stress (Cartesian axis) and pressure

          total   stress  (Ry/bohr**3)                   (kbar)     P=      -71.31
  -0.00057409   0.00000540  -0.00000095          -84.45        0.79       -0.14
   0.00000540  -0.00042934   0.00000299            0.79      -63.16        0.44
  -0.00000095   0.00000299  -0.00045079           -0.14        0.44      -66.31


     Entering Dynamics:    iteration =     5
                           time      =   0.0048 pico-seconds


ATOMIC_POSITIONS (angstrom)
Fe            0.0023220152        0.0005689933        0.0009460261
Se            1.5203587389        1.5215985756        1.5213319166


     kinetic energy (Ekin) =           0.00010686 Ry
     temperature           =          11.24753293 K 
     Ekin + Etot (const)   =        -731.00420725 Ry
     Ions kinetic stress =            0.05 (kbar)
                                      0.13           0.03           0.05
                                      0.03           0.01           0.01
                                      0.05           0.01           0.02



     Linear momentum :    0.0000000000    0.0000000000   -0.0000000000

     Writing config-only to output data dir ./work/try_1/calculation_try_1.save/
     NEW-OLD atomic charge density approx. for the potential

     Check: negative core charge=   -0.000008

     total cpu time spent up to now is      150.7 secs

     Self-consistent Calculation

     iteration #  1     ecut=    60.00 Ry     beta= 0.70
     Davidson diagonalization with overlap
     ethr =  1.00E-06,  avg # of iterations =  3.0

     total cpu time spent up to now is      158.5 secs

     total energy              =    -731.00419370 Ry
     estimated scf accuracy    <       0.00019236 Ry

     iteration #  2     ecut=    60.00 Ry     beta= 0.70
     Davidson diagonalization with overlap
     ethr =  6.01E-07,  avg # of iterations =  4.1

     total cpu time spent up to now is      166.8 secs

     total energy              =    -731.00373404 Ry
     estimated scf accuracy    <       0.00550114 Ry

     iteration #  3     ecut=    60.00 Ry     beta= 0.70
     Davidson diagonalization with overlap
     ethr =  6.01E-07,  avg # of iterations =  4.0

     total cpu time spent up to now is      174.7 secs

     End of self-consistent calculation

     Number of k-points >= 100: set verbosity='high' to print the bands.

     the Fermi energy is    15.8452 ev

!    total energy              =    -731.00432225 Ry
     estimated scf accuracy    <       0.00000202 Ry

     convergence has been achieved in   3 iterations

     Forces acting on atoms (cartesian axes, Ry/au):

     atom    1 type  2   force =     0.00223170   -0.00009819   -0.00006209
     atom    2 type  1   force =    -0.00223170    0.00009819    0.00006209

     Total force =     0.003160     Total SCF correction =     0.002820
     SCF correction compared to forces is large: reduce conv_thr to get better values


     Computing stress (Cartesian axis) and pressure

          total   stress  (Ry/bohr**3)                   (kbar)     P=      -80.97
  -0.00063932   0.00000613  -0.00000018          -94.05        0.90       -0.03
   0.00000613  -0.00049037   0.00000266            0.90      -72.14        0.39
  -0.00000018   0.00000266  -0.00052155           -0.03        0.39      -76.72


     Entering Dynamics:    iteration =     6
                           time      =   0.0058 pico-seconds


ATOMIC_POSITIONS (angstrom)
Fe            0.0028118834        0.0006811158        0.0011336283
Se            1.5200122763        1.5215192762        1.5211992336


     kinetic energy (Ekin) =           0.00010989 Ry
     temperature           =          11.56735080 K 
     Ekin + Etot (const)   =        -731.00421235 Ry
     Ions kinetic stress =            0.06 (kbar)
                                      0.14           0.03           0.05
                                      0.03           0.01           0.01
                                      0.05           0.01           0.02



     Linear momentum :    0.0000000000   -0.0000000000   -0.0000000000

     Writing config-only to output data dir ./work/try_1/calculation_try_1.save/
     NEW-OLD atomic charge density approx. for the potential

     Check: negative core charge=   -0.000008

     total cpu time spent up to now is      177.2 secs

     Self-consistent Calculation

     iteration #  1     ecut=    60.00 Ry     beta= 0.70
     Davidson diagonalization with overlap
     ethr =  1.00E-06,  avg # of iterations =  3.0

     Threshold (ethr) on eigenvalues was too large:
     Diagonalizing with lowered threshold

     Davidson diagonalization with overlap
     ethr =  6.53E-08,  avg # of iterations =  2.1

     total cpu time spent up to now is      191.1 secs

     total energy              =    -731.00430699 Ry
     estimated scf accuracy    <       0.00002168 Ry

     iteration #  2     ecut=    60.00 Ry     beta= 0.70
     Davidson diagonalization with overlap
     ethr =  6.77E-08,  avg # of iterations =  4.0

     total cpu time spent up to now is      199.1 secs

     total energy              =    -731.00430452 Ry
     estimated scf accuracy    <       0.00044405 Ry

     iteration #  3     ecut=    60.00 Ry     beta= 0.70
     Davidson diagonalization with overlap
     ethr =  6.77E-08,  avg # of iterations =  4.0

     total cpu time spent up to now is      207.2 secs

     End of self-consistent calculation

     Number of k-points >= 100: set verbosity='high' to print the bands.

     the Fermi energy is    15.8410 ev

!    total energy              =    -731.00432027 Ry
     estimated scf accuracy    <       0.00000608 Ry

     convergence has been achieved in   3 iterations

     Forces acting on atoms (cartesian axes, Ry/au):

     atom    1 type  2   force =     0.00268320    0.00000252    0.00010603
     atom    2 type  1   force =    -0.00268320   -0.00000252   -0.00010603

     Total force =     0.003798     Total SCF correction =     0.001336
     SCF correction compared to forces is large: reduce conv_thr to get better values


     Computing stress (Cartesian axis) and pressure

          total   stress  (Ry/bohr**3)                   (kbar)     P=      -71.77
  -0.00057686   0.00000688   0.00000029          -84.86        1.01        0.04
   0.00000688  -0.00042293   0.00000262            1.01      -62.22        0.39
   0.00000029   0.00000262  -0.00046387            0.04        0.39      -68.24


     Entering Dynamics:    iteration =     7
                           time      =   0.0068 pico-seconds


ATOMIC_POSITIONS (angstrom)
Fe            0.0033129099        0.0007932488        0.0013216715
Se            1.5196579218        1.5214399693        1.5210662388


     kinetic energy (Ekin) =           0.00011378 Ry
     temperature           =          11.97612759 K 
     Ekin + Etot (const)   =        -731.00420649 Ry
     Ions kinetic stress =            0.06 (kbar)
                                      0.14           0.03           0.05
                                      0.03           0.01           0.01
                                      0.05           0.01           0.02



     Linear momentum :   -0.0000000000    0.0000000000   -0.0000000000

     Writing config-only to output data dir ./work/try_1/calculation_try_1.save/
     NEW-OLD atomic charge density approx. for the potential

     Check: negative core charge=   -0.000008

     total cpu time spent up to now is      209.7 secs

     Self-consistent Calculation

     iteration #  1     ecut=    60.00 Ry     beta= 0.70
     Davidson diagonalization with overlap
     ethr =  1.00E-06,  avg # of iterations =  3.0

     total cpu time spent up to now is      217.5 secs

     total energy              =    -731.00419275 Ry
     estimated scf accuracy    <       0.00020714 Ry

     iteration #  2     ecut=    60.00 Ry     beta= 0.70
     Davidson diagonalization with overlap
     ethr =  6.47E-07,  avg # of iterations =  4.0

     total cpu time spent up to now is      225.8 secs

     total energy              =    -731.00371159 Ry
     estimated scf accuracy    <       0.00573027 Ry

     iteration #  3     ecut=    60.00 Ry     beta= 0.70
     Davidson diagonalization with overlap
     ethr =  6.47E-07,  avg # of iterations =  4.0

     total cpu time spent up to now is      233.7 secs

     End of self-consistent calculation

     Number of k-points >= 100: set verbosity='high' to print the bands.

     the Fermi energy is    15.8462 ev

!    total energy              =    -731.00432793 Ry
     estimated scf accuracy    <       0.00000632 Ry

     convergence has been achieved in   3 iterations

     Forces acting on atoms (cartesian axes, Ry/au):

     atom    1 type  2   force =     0.00238898   -0.00007333   -0.00000541
     atom    2 type  1   force =    -0.00238898    0.00007333    0.00000541

     Total force =     0.003380     Total SCF correction =     0.002760
     SCF correction compared to forces is large: reduce conv_thr to get better values


     Computing stress (Cartesian axis) and pressure

          total   stress  (Ry/bohr**3)                   (kbar)     P=      -83.61
  -0.00065654   0.00000782   0.00000113          -96.58        1.15        0.17
   0.00000782  -0.00049651   0.00000250            1.15      -73.04        0.37
   0.00000113   0.00000250  -0.00055206            0.17        0.37      -81.21


     Entering Dynamics:    iteration =     8
                           time      =   0.0077 pico-seconds


ATOMIC_POSITIONS (angstrom)
Fe            0.0038238713        0.0009050769        0.0015096921
Se            1.5192965408        1.5213608782        1.5209332599


     kinetic energy (Ekin) =           0.00011789 Ry
     temperature           =          12.40922696 K 
     Ekin + Etot (const)   =        -731.00421004 Ry
     Ions kinetic stress =            0.06 (kbar)
                                      0.15           0.03           0.06
                                      0.03           0.01           0.01
                                      0.06           0.01           0.02



     Linear momentum :   -0.0000000000    0.0000000000    0.0000000000

     Writing config-only to output data dir ./work/try_1/calculation_try_1.save/
     NEW-OLD atomic charge density approx. for the potential

     Check: negative core charge=   -0.000008

     total cpu time spent up to now is      236.3 secs

     Self-consistent Calculation

     iteration #  1     ecut=    60.00 Ry     beta= 0.70
     Davidson diagonalization with overlap
     ethr =  1.00E-06,  avg # of iterations =  3.0

     total cpu time spent up to now is      244.4 secs

     total energy              =    -731.00426244 Ry
     estimated scf accuracy    <       0.00008836 Ry

     iteration #  2     ecut=    60.00 Ry     beta= 0.70
     Davidson diagonalization with overlap
     ethr =  2.76E-07,  avg # of iterations =  4.0

     total cpu time spent up to now is      252.5 secs

     total energy              =    -731.00418124 Ry
     estimated scf accuracy    <       0.00199291 Ry

     iteration #  3     ecut=    60.00 Ry     beta= 0.70
     Davidson diagonalization with overlap
     ethr =  2.76E-07,  avg # of iterations =  4.0

     total cpu time spent up to now is      260.6 secs

     total energy              =    -731.00432923 Ry
     estimated scf accuracy    <       0.00001520 Ry

     iteration #  4     ecut=    60.00 Ry     beta= 0.70
     Davidson diagonalization with overlap
     ethr =  4.75E-08,  avg # of iterations =  1.1

     total cpu time spent up to now is      266.4 secs

     End of self-consistent calculation

     Number of k-points >= 100: set verbosity='high' to print the bands.

     the Fermi energy is    15.8439 ev

!    total energy              =    -731.00433395 Ry
     estimated scf accuracy    <       0.00000007 Ry

     convergence has been achieved in   4 iterations

     Forces acting on atoms (cartesian axes, Ry/au):

     atom    1 type  2   force =     0.00277416    0.00001664    0.00014888
     atom    2 type  1   force =    -0.00277416   -0.00001664   -0.00014888

     Total force =     0.003929     Total SCF correction =     0.001513
     SCF correction compared to forces is large: reduce conv_thr to get better values


     Computing stress (Cartesian axis) and pressure

          total   stress  (Ry/bohr**3)                   (kbar)     P=      -78.95
  -0.00062582   0.00000377  -0.00000255          -92.06        0.55       -0.37
   0.00000377  -0.00049073   0.00000343            0.55      -72.19        0.51
  -0.00000255   0.00000343  -0.00049362           -0.37        0.51      -72.61


     Entering Dynamics:    iteration =     9
                           time      =   0.0087 pico-seconds


ATOMIC_POSITIONS (angstrom)
Fe            0.0043463693        0.0010169741        0.0016983319
Se            1.5189270006        1.5212817381        1.5207998431


     kinetic energy (Ekin) =           0.00012219 Ry
     temperature           =          12.86103159 K 
     Ekin + Etot (const)   =        -731.00421177 Ry
     Ions kinetic stress =            0.06 (kbar)
                                      0.16           0.03           0.06
                                      0.03           0.01           0.01
                                      0.06           0.01           0.02



     Linear momentum :   -0.0000000000   -0.0000000000    0.0000000000

     Writing config-only to output data dir ./work/try_1/calculation_try_1.save/
     NEW-OLD atomic charge density approx. for the potential

     Check: negative core charge=   -0.000008

     total cpu time spent up to now is      268.9 secs

     Self-consistent Calculation

     iteration #  1     ecut=    60.00 Ry     beta= 0.70
     Davidson diagonalization with overlap
     ethr =  1.00E-06,  avg # of iterations =  3.2

     Threshold (ethr) on eigenvalues was too large:
     Diagonalizing with lowered threshold

     Davidson diagonalization with overlap
     ethr =  7.91E-09,  avg # of iterations =  3.6

     total cpu time spent up to now is      284.6 secs

     End of self-consistent calculation

     Number of k-points >= 100: set verbosity='high' to print the bands.

     the Fermi energy is    15.8467 ev

!    total energy              =    -731.00433750 Ry
     estimated scf accuracy    <       0.00000266 Ry

     convergence has been achieved in   1 iterations

     Forces acting on atoms (cartesian axes, Ry/au):

     atom    1 type  2   force =     0.00194762   -0.00012457   -0.00011258
     atom    2 type  1   force =    -0.00194762    0.00012457    0.00011258

     Total force =     0.002765     Total SCF correction =     0.000335
     SCF correction compared to forces is large: reduce conv_thr to get better values


     Computing stress (Cartesian axis) and pressure

          total   stress  (Ry/bohr**3)                   (kbar)     P=      -86.70
  -0.00067890   0.00000297  -0.00000230          -99.87        0.44       -0.34
   0.00000297  -0.00054434   0.00000474            0.44      -80.07        0.70
  -0.00000230   0.00000474  -0.00054490           -0.34        0.70      -80.16


     Entering Dynamics:    iteration =    10
                           time      =   0.0097 pico-seconds


ATOMIC_POSITIONS (angstrom)
Fe            0.0048769667        0.0011283533        0.0018865035
Se            1.5185517320        1.5212029644        1.5206667575


     kinetic energy (Ekin) =           0.00012615 Ry
     temperature           =          13.27835995 K 
     Ekin + Etot (const)   =        -731.00421135 Ry
     Ions kinetic stress =            0.06 (kbar)
                                      0.16           0.03           0.06
                                      0.03           0.01           0.01
                                      0.06           0.01           0.02



     Linear momentum :   -0.0000000000    0.0000000000    0.0000000000

     Writing config-only to output data dir ./work/try_1/calculation_try_1.save/
     NEW-OLD atomic charge density approx. for the potential

     Check: negative core charge=   -0.000008

     total cpu time spent up to now is      287.3 secs

     Self-consistent Calculation

     iteration #  1     ecut=    60.00 Ry     beta= 0.70
     Davidson diagonalization with overlap
     ethr =  1.00E-06,  avg # of iterations =  3.0

     total cpu time spent up to now is      295.7 secs

     total energy              =    -731.00421003 Ry
     estimated scf accuracy    <       0.00015553 Ry

     iteration #  2     ecut=    60.00 Ry     beta= 0.70
     Davidson diagonalization with overlap
     ethr =  4.86E-07,  avg # of iterations =  4.1

     total cpu time spent up to now is      304.2 secs

     total energy              =    -731.00400573 Ry
     estimated scf accuracy    <       0.00438766 Ry

     iteration #  3     ecut=    60.00 Ry     beta= 0.70
     Davidson diagonalization with overlap
     ethr =  4.86E-07,  avg # of iterations =  4.0

     total cpu time spent up to now is      312.3 secs

     End of self-consistent calculation

     Number of k-points >= 100: set verbosity='high' to print the bands.

     the Fermi energy is    15.8438 ev

!    total energy              =    -731.00434203 Ry
     estimated scf accuracy    <       0.00000009 Ry

     convergence has been achieved in   3 iterations

     Forces acting on atoms (cartesian axes, Ry/au):

     atom    1 type  2   force =     0.00244563   -0.00005286    0.00001392
     atom    2 type  1   force =    -0.00244563    0.00005286   -0.00001392

     Total force =     0.003460     Total SCF correction =     0.003281
     SCF correction compared to forces is large: reduce conv_thr to get better values


     Computing stress (Cartesian axis) and pressure

          total   stress  (Ry/bohr**3)                   (kbar)     P=      -80.09
  -0.00063402   0.00000291  -0.00000251          -93.27        0.43       -0.37
   0.00000291  -0.00049906   0.00000453            0.43      -73.41        0.67
  -0.00000251   0.00000453  -0.00050019           -0.37        0.67      -73.58


     Entering Dynamics:    iteration =    11
                           time      =   0.0106 pico-seconds


ATOMIC_POSITIONS (angstrom)
Fe            0.0054177344        0.0012395126        0.0020747330
Se            1.5181692703        1.5211243462        1.5205336309


     kinetic energy (Ekin) =           0.00012985 Ry
     temperature           =          13.66803330 K 
     Ekin + Etot (const)   =        -731.00421218 Ry
     Ions kinetic stress =            0.07 (kbar)
                                      0.17           0.04           0.06
                                      0.04           0.01           0.01
                                      0.06           0.01           0.02



     Linear momentum :   -0.0000000000   -0.0000000000    0.0000000000

     Writing config-only to output data dir ./work/try_1/calculation_try_1.save/
     NEW-OLD atomic charge density approx. for the potential

     Check: negative core charge=   -0.000008

     total cpu time spent up to now is      314.9 secs

     Self-consistent Calculation

     iteration #  1     ecut=    60.00 Ry     beta= 0.70
     Davidson diagonalization with overlap
     ethr =  1.00E-06,  avg # of iterations =  3.0

     Threshold (ethr) on eigenvalues was too large:
     Diagonalizing with lowered threshold

     Davidson diagonalization with overlap
     ethr =  7.82E-10,  avg # of iterations =  5.0

     total cpu time spent up to now is      332.7 secs

     End of self-consistent calculation

     Number of k-points >= 100: set verbosity='high' to print the bands.

     the Fermi energy is    15.8439 ev

!    total energy              =    -731.00434663 Ry
     estimated scf accuracy    <       0.00000020 Ry

     convergence has been achieved in   1 iterations

     Forces acting on atoms (cartesian axes, Ry/au):

     atom    1 type  2   force =     0.00243324   -0.00001637    0.00007737
     atom    2 type  1   force =    -0.00243324    0.00001637   -0.00007737

     Total force =     0.003443     Total SCF correction =     0.000918
     SCF correction compared to forces is large: reduce conv_thr to get better values


     Computing stress (Cartesian axis) and pressure

          total   stress  (Ry/bohr**3)                   (kbar)     P=      -78.44
  -0.00062145   0.00000392  -0.00000278          -91.42        0.58       -0.41
   0.00000392  -0.00048983   0.00000247            0.58      -72.06        0.36
  -0.00000278   0.00000247  -0.00048836           -0.41        0.36      -71.84


     Entering Dynamics:    iteration =    12
                           time      =   0.0116 pico-seconds


ATOMIC_POSITIONS (angstrom)
Fe            0.0059686210        0.0013506039        0.0022632843
Se            1.5177796520        1.5210457761        1.5204002767


     kinetic energy (Ekin) =           0.00013412 Ry
     temperature           =          14.11760899 K 
     Ekin + Etot (const)   =        -731.00421250 Ry
     Ions kinetic stress =            0.07 (kbar)
                                      0.18           0.04           0.06
                                      0.04           0.01           0.01
                                      0.06           0.01           0.02



     Linear momentum :   -0.0000000000   -0.0000000000    0.0000000000

     Writing config-only to output data dir ./work/try_1/calculation_try_1.save/
     NEW-OLD atomic charge density approx. for the potential

     Check: negative core charge=   -0.000008

     total cpu time spent up to now is      335.3 secs

     Self-consistent Calculation

     iteration #  1     ecut=    60.00 Ry     beta= 0.70
     Davidson diagonalization with overlap
     ethr =  1.00E-06,  avg # of iterations =  3.4

     Threshold (ethr) on eigenvalues was too large:
     Diagonalizing with lowered threshold

     Davidson diagonalization with overlap
     ethr =  8.36E-09,  avg # of iterations =  3.5

     total cpu time spent up to now is      351.0 secs

     End of self-consistent calculation

     Number of k-points >= 100: set verbosity='high' to print the bands.

     the Fermi energy is    15.8468 ev

!    total energy              =    -731.00435077 Ry
     estimated scf accuracy    <       0.00000284 Ry

     convergence has been achieved in   1 iterations

     Forces acting on atoms (cartesian axes, Ry/au):

     atom    1 type  2   force =     0.00217573   -0.00011677   -0.00008374
     atom    2 type  1   force =    -0.00217573    0.00011677    0.00008374

     Total force =     0.003084     Total SCF correction =     0.002509
     SCF correction compared to forces is large: reduce conv_thr to get better values


     Computing stress (Cartesian axis) and pressure

          total   stress  (Ry/bohr**3)                   (kbar)     P=      -87.01
  -0.00068108   0.00000264  -0.00000181         -100.19        0.39       -0.27
   0.00000264  -0.00054462   0.00000570            0.39      -80.12        0.84
  -0.00000181   0.00000570  -0.00054866           -0.27        0.84      -80.71


     Entering Dynamics:    iteration =    13
                           time      =   0.0126 pico-seconds


ATOMIC_POSITIONS (angstrom)
Fe            0.0065285556        0.0014612096        0.0024514873
Se            1.5173836344        1.5209675495        1.5202671689


     kinetic energy (Ekin) =           0.00013819 Ry
     temperature           =          14.54579882 K 
     Ekin + Etot (const)   =        -731.00421258 Ry
     Ions kinetic stress =            0.07 (kbar)
                                      0.18           0.04           0.06
                                      0.04           0.01           0.01
                                      0.06           0.01           0.02



     Linear momentum :   -0.0000000000   -0.0000000000    0.0000000000

     Writing config-only to output data dir ./work/try_1/calculation_try_1.save/
     NEW-OLD atomic charge density approx. for the potential

     Check: negative core charge=   -0.000008

     total cpu time spent up to now is      353.6 secs

     Self-consistent Calculation

     iteration #  1     ecut=    60.00 Ry     beta= 0.70
     Davidson diagonalization with overlap
     ethr =  1.00E-06,  avg # of iterations =  3.0

     total cpu time spent up to now is      361.7 secs

     total energy              =    -731.00421242 Ry
     estimated scf accuracy    <       0.00017039 Ry

     iteration #  2     ecut=    60.00 Ry     beta= 0.70
     Davidson diagonalization with overlap
     ethr =  5.32E-07,  avg # of iterations =  4.1

     total cpu time spent up to now is      370.1 secs

     total energy              =    -731.00398338 Ry
     estimated scf accuracy    <       0.00480910 Ry

     iteration #  3     ecut=    60.00 Ry     beta= 0.70
     Davidson diagonalization with overlap
     ethr =  5.32E-07,  avg # of iterations =  4.0

     total cpu time spent up to now is      378.3 secs

     End of self-consistent calculation

     Number of k-points >= 100: set verbosity='high' to print the bands.

     the Fermi energy is    15.8439 ev

!    total energy              =    -731.00435601 Ry
     estimated scf accuracy    <       0.00000010 Ry

     convergence has been achieved in   3 iterations

     Forces acting on atoms (cartesian axes, Ry/au):

     atom    1 type  2   force =     0.00259736   -0.00004087    0.00005519
     atom    2 type  1   force =    -0.00259736    0.00004087   -0.00005519

     Total force =     0.003675     Total SCF correction =     0.003355
     SCF correction compared to forces is large: reduce conv_thr to get better values


     Computing stress (Cartesian axis) and pressure

          total   stress  (Ry/bohr**3)                   (kbar)     P=      -80.47
  -0.00063641   0.00000274  -0.00000188          -93.62        0.40       -0.28
   0.00000274  -0.00050109   0.00000320            0.40      -73.71        0.47
  -0.00000188   0.00000320  -0.00050360           -0.28        0.47      -74.08


     Entering Dynamics:    iteration =    14
                           time      =   0.0135 pico-seconds


ATOMIC_POSITIONS (angstrom)
Fe            0.0070992916        0.0015716453        0.0026399198
Se            1.5169799775        1.5208894431        1.5201338987


     kinetic energy (Ekin) =           0.00014247 Ry
     temperature           =          14.99607543 K 
     Ekin + Etot (const)   =        -731.00421354 Ry
     Ions kinetic stress =            0.07 (kbar)
                                      0.19           0.04           0.06
                                      0.04           0.01           0.01
                                      0.06           0.01           0.02



     Linear momentum :   -0.0000000000   -0.0000000000    0.0000000000

     Writing config-only to output data dir ./work/try_1/calculation_try_1.save/
     NEW-OLD atomic charge density approx. for the potential

     Check: negative core charge=   -0.000008

     total cpu time spent up to now is      380.9 secs

     Self-consistent Calculation

     iteration #  1     ecut=    60.00 Ry     beta= 0.70
     Davidson diagonalization with overlap
     ethr =  1.00E-06,  avg # of iterations =  3.1

     Threshold (ethr) on eigenvalues was too large:
     Diagonalizing with lowered threshold

     Davidson diagonalization with overlap
     ethr =  1.04E-09,  avg # of iterations =  4.9

     total cpu time spent up to now is      398.3 secs

     End of self-consistent calculation

     Number of k-points >= 100: set verbosity='high' to print the bands.

     the Fermi energy is    15.8437 ev

!    total energy              =    -731.00436125 Ry
     estimated scf accuracy    <       0.00000030 Ry

     convergence has been achieved in   1 iterations

     Forces acting on atoms (cartesian axes, Ry/au):

     atom    1 type  2   force =     0.00257467    0.00002255    0.00013895
     atom    2 type  1   force =    -0.00257467   -0.00002255   -0.00013895

     Total force =     0.003647     Total SCF correction =     0.000932
     SCF correction compared to forces is large: reduce conv_thr to get better values


     Computing stress (Cartesian axis) and pressure

          total   stress  (Ry/bohr**3)                   (kbar)     P=      -77.32
  -0.00061262   0.00000439  -0.00000321          -90.12        0.65       -0.47
   0.00000439  -0.00048307   0.00000296            0.65      -71.06        0.44
  -0.00000321   0.00000296  -0.00048122           -0.47        0.44      -70.79


     Entering Dynamics:    iteration =    15
                           time      =   0.0145 pico-seconds


ATOMIC_POSITIONS (angstrom)
Fe            0.0076807345        0.0016821748        0.0028289302
Se            1.5165687480        1.5208112704        1.5200002198


     kinetic energy (Ekin) =           0.00014729 Ry
     temperature           =          15.50313710 K 
     Ekin + Etot (const)   =        -731.00421396 Ry
     Ions kinetic stress =            0.07 (kbar)
                                      0.20           0.04           0.06
                                      0.04           0.01           0.01
                                      0.06           0.01           0.02



     Linear momentum :   -0.0000000000   -0.0000000000    0.0000000000

     Writing config-only to output data dir ./work/try_1/calculation_try_1.save/
     NEW-OLD atomic charge density approx. for the potential

     Check: negative core charge=   -0.000008

     total cpu time spent up to now is      400.8 secs

     Self-consistent Calculation

     iteration #  1     ecut=    60.00 Ry     beta= 0.70
     Davidson diagonalization with overlap
     ethr =  1.00E-06,  avg # of iterations =  3.8

     Threshold (ethr) on eigenvalues was too large:
     Diagonalizing with lowered threshold

     Davidson diagonalization with overlap
     ethr =  2.26E-08,  avg # of iterations =  2.4

     total cpu time spent up to now is      416.1 secs

     End of self-consistent calculation

     Number of k-points >= 100: set verbosity='high' to print the bands.

     the Fermi energy is    15.8487 ev

!    total energy              =    -731.00436299 Ry
     estimated scf accuracy    <       0.00000761 Ry

     convergence has been achieved in   1 iterations

     Forces acting on atoms (cartesian axes, Ry/au):

     atom    1 type  2   force =     0.00223264   -0.00011651   -0.00005291
     atom    2 type  1   force =    -0.00223264    0.00011651    0.00005291

     Total force =     0.003163     Total SCF correction =     0.002554
     SCF correction compared to forces is large: reduce conv_thr to get better values


     Computing stress (Cartesian axis) and pressure

          total   stress  (Ry/bohr**3)                   (kbar)     P=      -92.38
  -0.00071785   0.00000206  -0.00000030         -105.60        0.30       -0.04
   0.00000206  -0.00057935   0.00000258            0.30      -85.23        0.38
  -0.00000030   0.00000258  -0.00058683           -0.04        0.38      -86.33


     Entering Dynamics:    iteration =    16
                           time      =   0.0155 pico-seconds


ATOMIC_POSITIONS (angstrom)
Fe            0.0082714622        0.0017922198        0.0030177205
Se            1.5161509518        1.5207334403        1.5198666965


     kinetic energy (Ekin) =           0.00015180 Ry
     temperature           =          15.97845047 K 
     Ekin + Etot (const)   =        -731.00421119 Ry
     Ions kinetic stress =            0.08 (kbar)
                                      0.20           0.04           0.07
                                      0.04           0.01           0.01
                                      0.07           0.01           0.02



     Linear momentum :   -0.0000000000   -0.0000000000   -0.0000000000

     Writing config-only to output data dir ./work/try_1/calculation_try_1.save/
     NEW-OLD atomic charge density approx. for the potential

     Check: negative core charge=   -0.000008

     total cpu time spent up to now is      418.6 secs

     Self-consistent Calculation

     iteration #  1     ecut=    60.00 Ry     beta= 0.70
     Davidson diagonalization with overlap
     ethr =  1.00E-06,  avg # of iterations =  3.0

     total cpu time spent up to now is      427.2 secs

     total energy              =    -731.00399154 Ry
     estimated scf accuracy    <       0.00047280 Ry

     iteration #  2     ecut=    60.00 Ry     beta= 0.70
     Davidson diagonalization with overlap
     ethr =  1.48E-06,  avg # of iterations =  4.1

     total cpu time spent up to now is      436.1 secs

     total energy              =    -731.00326639 Ry
     estimated scf accuracy    <       0.01323853 Ry

     iteration #  3     ecut=    60.00 Ry     beta= 0.70
     Davidson diagonalization with overlap
     ethr =  1.48E-06,  avg # of iterations =  4.0

     total cpu time spent up to now is      444.6 secs

     End of self-consistent calculation

     Number of k-points >= 100: set verbosity='high' to print the bands.

     the Fermi energy is    15.8441 ev

!    total energy              =    -731.00437159 Ry
     estimated scf accuracy    <       0.00000025 Ry

     convergence has been achieved in   3 iterations

     Forces acting on atoms (cartesian axes, Ry/au):

     atom    1 type  2   force =     0.00271769   -0.00000689    0.00013417
     atom    2 type  1   force =    -0.00271769    0.00000689   -0.00013417

     Total force =     0.003848     Total SCF correction =     0.003289
     SCF correction compared to forces is large: reduce conv_thr to get better values


     Computing stress (Cartesian axis) and pressure

          total   stress  (Ry/bohr**3)                   (kbar)     P=      -82.94
  -0.00065262   0.00000248  -0.00000037          -96.00        0.36       -0.05
   0.00000248  -0.00051599   0.00000225            0.36      -75.90        0.33
  -0.00000037   0.00000225  -0.00052275           -0.05        0.33      -76.90


     Entering Dynamics:    iteration =    17
                           time      =   0.0164 pico-seconds


ATOMIC_POSITIONS (angstrom)
Fe            0.0088734916        0.0019022361        0.0032070688
Se            1.5157251624        1.5206556305        1.5197327786


     kinetic energy (Ekin) =           0.00015653 Ry
     temperature           =          16.47570349 K 
     Ekin + Etot (const)   =        -731.00421506 Ry
     Ions kinetic stress =            0.08 (kbar)
                                      0.21           0.04           0.07
                                      0.04           0.01           0.01
                                      0.07           0.01           0.02



     Linear momentum :   -0.0000000000   -0.0000000000   -0.0000000000

     Writing config-only to output data dir ./work/try_1/calculation_try_1.save/
     NEW-OLD atomic charge density approx. for the potential

     Check: negative core charge=   -0.000008

     total cpu time spent up to now is      447.2 secs

     Self-consistent Calculation

     iteration #  1     ecut=    60.00 Ry     beta= 0.70
     Davidson diagonalization with overlap
     ethr =  1.00E-06,  avg # of iterations =  3.1

     Threshold (ethr) on eigenvalues was too large:
     Diagonalizing with lowered threshold

     Davidson diagonalization with overlap
     ethr =  1.73E-08,  avg # of iterations =  3.5

     total cpu time spent up to now is      463.0 secs

     End of self-consistent calculation

     Number of k-points >= 100: set verbosity='high' to print the bands.

     the Fermi energy is    15.8405 ev

!    total energy              =    -731.00437121 Ry
     estimated scf accuracy    <       0.00000583 Ry

     convergence has been achieved in   1 iterations

     Forces acting on atoms (cartesian axes, Ry/au):

     atom    1 type  2   force =     0.00244528   -0.00001803    0.00008904
     atom    2 type  1   force =    -0.00244528    0.00001803   -0.00008904

     Total force =     0.003461     Total SCF correction =     0.001062
     SCF correction compared to forces is large: reduce conv_thr to get better values


     Computing stress (Cartesian axis) and pressure

          total   stress  (Ry/bohr**3)                   (kbar)     P=      -66.37
  -0.00053732   0.00000489  -0.00000482          -79.04        0.72       -0.71
   0.00000489  -0.00041321   0.00000328            0.72      -60.79        0.48
  -0.00000482   0.00000328  -0.00040295           -0.71        0.48      -59.28


     Entering Dynamics:    iteration =    18
                           time      =   0.0174 pico-seconds


ATOMIC_POSITIONS (angstrom)
Fe            0.0094856899        0.0020121774        0.0033967874
Se            1.5152921810        1.5205778738        1.5195985989


     kinetic energy (Ekin) =           0.00016160 Ry
     temperature           =          17.00993014 K 
     Ekin + Etot (const)   =        -731.00420960 Ry
     Ions kinetic stress =            0.08 (kbar)
                                      0.22           0.04           0.07
                                      0.04           0.01           0.01
                                      0.07           0.01           0.02



     Linear momentum :    0.0000000000   -0.0000000000    0.0000000000

     Writing config-only to output data dir ./work/try_1/calculation_try_1.save/
     NEW-OLD atomic charge density approx. for the potential

     Check: negative core charge=   -0.000008

     total cpu time spent up to now is      465.6 secs

     Self-consistent Calculation

     iteration #  1     ecut=    60.00 Ry     beta= 0.70
     Davidson diagonalization with overlap
     ethr =  1.00E-06,  avg # of iterations =  3.1

     total cpu time spent up to now is      473.7 secs

     total energy              =    -731.00414539 Ry
     estimated scf accuracy    <       0.00034348 Ry

     iteration #  2     ecut=    60.00 Ry     beta= 0.70
     Davidson diagonalization with overlap
     ethr =  1.07E-06,  avg # of iterations =  4.1

     total cpu time spent up to now is      482.3 secs

     total energy              =    -731.00334880 Ry
     estimated scf accuracy    <       0.01004018 Ry

     iteration #  3     ecut=    60.00 Ry     beta= 0.70
     Davidson diagonalization with overlap
     ethr =  1.07E-06,  avg # of iterations =  4.0

     total cpu time spent up to now is      490.7 secs

     End of self-consistent calculation

     Number of k-points >= 100: set verbosity='high' to print the bands.

     the Fermi energy is    15.8451 ev

!    total energy              =    -731.00438471 Ry
     estimated scf accuracy    <       0.00000064 Ry

     convergence has been achieved in   3 iterations

     Forces acting on atoms (cartesian axes, Ry/au):

     atom    1 type  2   force =     0.00291489    0.00004686    0.00021621
     atom    2 type  1   force =    -0.00291489   -0.00004686   -0.00021621

     Total force =     0.004134     Total SCF correction =     0.002737
     SCF correction compared to forces is large: reduce conv_thr to get better values


     Computing stress (Cartesian axis) and pressure

          total   stress  (Ry/bohr**3)                   (kbar)     P=      -77.46
  -0.00061200   0.00000432  -0.00000492          -90.03        0.64       -0.72
   0.00000432  -0.00049185   0.00000403            0.64      -72.35        0.59
  -0.00000492   0.00000403  -0.00047584           -0.72        0.59      -70.00


     Entering Dynamics:    iteration =    19
                           time      =   0.0184 pico-seconds


ATOMIC_POSITIONS (angstrom)
Fe            0.0101100100        0.0021223136        0.0035874052
Se            1.5148506263        1.5204999792        1.5194637832


     kinetic energy (Ekin) =           0.00016700 Ry
     temperature           =          17.57793154 K 
     Ekin + Etot (const)   =        -731.00421771 Ry
     Ions kinetic stress =            0.08 (kbar)
                                      0.23           0.04           0.07
                                      0.04           0.01           0.01
                                      0.07           0.01           0.02



     Linear momentum :    0.0000000000    0.0000000000    0.0000000000

     Writing config-only to output data dir ./work/try_1/calculation_try_1.save/
     NEW-OLD atomic charge density approx. for the potential

     Check: negative core charge=   -0.000008

     total cpu time spent up to now is      493.4 secs

     Self-consistent Calculation

     iteration #  1     ecut=    60.00 Ry     beta= 0.70
     Davidson diagonalization with overlap
     ethr =  1.00E-06,  avg # of iterations =  3.8

     Threshold (ethr) on eigenvalues was too large:
     Diagonalizing with lowered threshold

     Davidson diagonalization with overlap
     ethr =  1.61E-08,  avg # of iterations =  2.5

     total cpu time spent up to now is      509.2 secs

     End of self-consistent calculation

     Number of k-points >= 100: set verbosity='high' to print the bands.

     the Fermi energy is    15.8413 ev

!    total energy              =    -731.00438402 Ry
     estimated scf accuracy    <       0.00000519 Ry

     convergence has been achieved in   1 iterations

     Forces acting on atoms (cartesian axes, Ry/au):

     atom    1 type  2   force =     0.00251445   -0.00003275    0.00011467
     atom    2 type  1   force =    -0.00251445    0.00003275   -0.00011467

     Total force =     0.003560     Total SCF correction =     0.000561
     SCF correction compared to forces is large: reduce conv_thr to get better values


     Computing stress (Cartesian axis) and pressure

          total   stress  (Ry/bohr**3)                   (kbar)     P=      -72.50
  -0.00058309   0.00000287   0.00000432          -85.78        0.42        0.64
   0.00000287  -0.00043259   0.00000127            0.42      -63.64        0.19
   0.00000432   0.00000127  -0.00046291            0.64        0.19      -68.10


     Entering Dynamics:    iteration =    20
                           time      =   0.0194 pico-seconds


ATOMIC_POSITIONS (angstrom)
Fe            0.0107447867        0.0022323136        0.0037784998
Se            1.5144016761        1.5204221809        1.5193286302


     kinetic energy (Ekin) =           0.00017257 Ry
     temperature           =          18.16405871 K 
     Ekin + Etot (const)   =        -731.00421145 Ry
     Ions kinetic stress =            0.09 (kbar)
                                      0.23           0.04           0.07
                                      0.04           0.01           0.01
                                      0.07           0.01           0.02



     Linear momentum :    0.0000000000    0.0000000000    0.0000000000

     Writing config-only to output data dir ./work/try_1/calculation_try_1.save/
     NEW-OLD atomic charge density approx. for the potential

     Check: negative core charge=   -0.000008

     total cpu time spent up to now is      511.9 secs

     Self-consistent Calculation

     iteration #  1     ecut=    60.00 Ry     beta= 0.70
     Davidson diagonalization with overlap
     ethr =  1.00E-06,  avg # of iterations =  3.8

     total cpu time spent up to now is      520.9 secs

     total energy              =    -731.00425888 Ry
     estimated scf accuracy    <       0.00020935 Ry

     iteration #  2     ecut=    60.00 Ry     beta= 0.70
     Davidson diagonalization with overlap
     ethr =  6.54E-07,  avg # of iterations =  4.0

     total cpu time spent up to now is      529.3 secs

     total energy              =    -731.00376465 Ry
     estimated scf accuracy    <       0.00593695 Ry

     iteration #  3     ecut=    60.00 Ry     beta= 0.70
     Davidson diagonalization with overlap
     ethr =  6.54E-07,  avg # of iterations =  4.0

     total cpu time spent up to now is      537.3 secs

     End of self-consistent calculation

     Number of k-points >= 100: set verbosity='high' to print the bands.

     the Fermi energy is    15.8456 ev

!    total energy              =    -731.00439564 Ry
     estimated scf accuracy    <       0.00000363 Ry

     convergence has been achieved in   3 iterations

     Forces acting on atoms (cartesian axes, Ry/au):

     atom    1 type  2   force =     0.00316275    0.00008621    0.00031710
     atom    2 type  1   force =    -0.00316275   -0.00008621   -0.00031710

     Total force =     0.004497     Total SCF correction =     0.002839
     SCF correction compared to forces is large: reduce conv_thr to get better values


     Computing stress (Cartesian axis) and pressure

          total   stress  (Ry/bohr**3)                   (kbar)     P=      -81.20
  -0.00064176   0.00000347   0.00000516          -94.41        0.51        0.76
   0.00000347  -0.00048599   0.00000198            0.51      -71.49        0.29
   0.00000516   0.00000198  -0.00052830            0.76        0.29      -77.72


     Entering Dynamics:    iteration =    21
                           time      =   0.0203 pico-seconds


ATOMIC_POSITIONS (angstrom)
Fe            0.0113927161        0.0023426721        0.0039709130
Se            1.5139434236        1.5203441291        1.5191925446


     kinetic energy (Ekin) =           0.00017853 Ry
     temperature           =          18.79163171 K 
     Ekin + Etot (const)   =        -731.00421711 Ry
     Ions kinetic stress =            0.09 (kbar)
                                      0.24           0.04           0.07
                                      0.04           0.01           0.01
                                      0.07           0.01           0.02



     Linear momentum :    0.0000000000   -0.0000000000   -0.0000000000

     Writing config-only to output data dir ./work/try_1/calculation_try_1.save/
     NEW-OLD atomic charge density approx. for the potential

     Check: negative core charge=   -0.000008

     total cpu time spent up to now is      539.8 secs

     Self-consistent Calculation

     iteration #  1     ecut=    60.00 Ry     beta= 0.70
     Davidson diagonalization with overlap
     ethr =  1.00E-06,  avg # of iterations =  3.8

     total cpu time spent up to now is      548.5 secs

     total energy              =    -731.00437588 Ry
     estimated scf accuracy    <       0.00003540 Ry

     iteration #  2     ecut=    60.00 Ry     beta= 0.70
     Davidson diagonalization with overlap
     ethr =  1.11E-07,  avg # of iterations =  4.0

     total cpu time spent up to now is      556.8 secs

     total energy              =    -731.00436011 Ry
     estimated scf accuracy    <       0.00069540 Ry

     iteration #  3     ecut=    60.00 Ry     beta= 0.70
     Davidson diagonalization with overlap
     ethr =  1.11E-07,  avg # of iterations =  4.0

     total cpu time spent up to now is      564.6 secs

     total energy              =    -731.00439955 Ry
     estimated scf accuracy    <       0.00001169 Ry

     iteration #  4     ecut=    60.00 Ry     beta= 0.70
     Davidson diagonalization with overlap
     ethr =  3.65E-08,  avg # of iterations =  1.1

     total cpu time spent up to now is      570.3 secs

     End of self-consistent calculation

     Number of k-points >= 100: set verbosity='high' to print the bands.

     the Fermi energy is    15.8441 ev

!    total energy              =    -731.00440448 Ry
     estimated scf accuracy    <       0.00000008 Ry

     convergence has been achieved in   4 iterations

     Forces acting on atoms (cartesian axes, Ry/au):

     atom    1 type  2   force =     0.00366673    0.00017405    0.00045346
     atom    2 type  1   force =    -0.00366673   -0.00017405   -0.00045346

     Total force =     0.005231     Total SCF correction =     0.001544
     SCF correction compared to forces is large: reduce conv_thr to get better values


     Computing stress (Cartesian axis) and pressure

          total   stress  (Ry/bohr**3)                   (kbar)     P=      -78.75
  -0.00062240   0.00000392  -0.00000067          -91.56        0.58       -0.10
   0.00000392  -0.00049092   0.00000360            0.58      -72.22        0.53
  -0.00000067   0.00000360  -0.00049271           -0.10        0.53      -72.48


     Entering Dynamics:    iteration =    22
                           time      =   0.0213 pico-seconds


ATOMIC_POSITIONS (angstrom)
Fe            0.0120558939        0.0024537544        0.0041652120
Se            1.5134743866        1.5202655654        1.5190551253


     kinetic energy (Ekin) =           0.00018596 Ry
     temperature           =          19.57365840 K 
     Ekin + Etot (const)   =        -731.00421852 Ry
     Ions kinetic stress =            0.09 (kbar)
                                      0.25           0.04           0.07
                                      0.04           0.01           0.01
                                      0.07           0.01           0.02



     Linear momentum :    0.0000000000   -0.0000000000   -0.0000000000

     Writing config-only to output data dir ./work/try_1/calculation_try_1.save/
     NEW-OLD atomic charge density approx. for the potential

     Check: negative core charge=   -0.000008

     total cpu time spent up to now is      573.0 secs

     Self-consistent Calculation

     iteration #  1     ecut=    60.00 Ry     beta= 0.70
     Davidson diagonalization with overlap
     ethr =  1.00E-06,  avg # of iterations =  3.9

     Threshold (ethr) on eigenvalues was too large:
     Diagonalizing with lowered threshold

     Davidson diagonalization with overlap
     ethr =  5.69E-09,  avg # of iterations =  3.0

     total cpu time spent up to now is      589.3 secs

     End of self-consistent calculation

     Number of k-points >= 100: set verbosity='high' to print the bands.

     the Fermi energy is    15.8463 ev

!    total energy              =    -731.00441155 Ry
     estimated scf accuracy    <       0.00000186 Ry

     convergence has been achieved in   1 iterations

     Forces acting on atoms (cartesian axes, Ry/au):

     atom    1 type  2   force =     0.00261340   -0.00000851    0.00012885
     atom    2 type  1   force =    -0.00261340    0.00000851   -0.00012885

     Total force =     0.003700     Total SCF correction =     0.000556
     SCF correction compared to forces is large: reduce conv_thr to get better values


     Computing stress (Cartesian axis) and pressure

          total   stress  (Ry/bohr**3)                   (kbar)     P=      -84.53
  -0.00066079   0.00000405  -0.00000124          -97.21        0.60       -0.18
   0.00000405  -0.00052950   0.00000011            0.60      -77.89        0.02
  -0.00000124   0.00000011  -0.00053350           -0.18        0.02      -78.48


     Entering Dynamics:    iteration =    23
                           time      =   0.0223 pico-seconds


ATOMIC_POSITIONS (angstrom)
Fe            0.0127299397        0.0025648013        0.0043600469
Se            1.5129976631        1.5201870267        1.5189173270


     kinetic energy (Ekin) =           0.00019288 Ry
     temperature           =          20.30195415 K 
     Ekin + Etot (const)   =        -731.00421867 Ry
     Ions kinetic stress =            0.10 (kbar)
                                      0.26           0.04           0.08
                                      0.04           0.01           0.01
                                      0.08           0.01           0.02



     Linear momentum :    0.0000000000   -0.0000000000   -0.0000000000

     Writing config-only to output data dir ./work/try_1/calculation_try_1.save/
     NEW-OLD atomic charge density approx. for the potential

     Check: negative core charge=   -0.000008

     total cpu time spent up to now is      591.9 secs

     Self-consistent Calculation

     iteration #  1     ecut=    60.00 Ry     beta= 0.70
     Davidson diagonalization with overlap
     ethr =  1.00E-06,  avg # of iterations =  3.7

     total cpu time spent up to now is      600.9 secs

     total energy              =    -731.00433249 Ry
     estimated scf accuracy    <       0.00009839 Ry

     iteration #  2     ecut=    60.00 Ry     beta= 0.70
     Davidson diagonalization with overlap
     ethr =  3.07E-07,  avg # of iterations =  4.1

     total cpu time spent up to now is      609.1 secs

     total energy              =    -731.00421661 Ry
     estimated scf accuracy    <       0.00279442 Ry

     iteration #  3     ecut=    60.00 Ry     beta= 0.70
     Davidson diagonalization with overlap
     ethr =  3.07E-07,  avg # of iterations =  4.0

     total cpu time spent up to now is      617.5 secs

     End of self-consistent calculation

     Number of k-points >= 100: set verbosity='high' to print the bands.

     the Fermi energy is    15.8440 ev

!    total energy              =    -731.00441936 Ry
     estimated scf accuracy    <       0.00000018 Ry

     convergence has been achieved in   3 iterations

     Forces acting on atoms (cartesian axes, Ry/au):

     atom    1 type  2   force =     0.00333671    0.00011341    0.00033452
     atom    2 type  1   force =    -0.00333671   -0.00011341   -0.00033452

     Total force =     0.004745     Total SCF correction =     0.003352
     SCF correction compared to forces is large: reduce conv_thr to get better values


     Computing stress (Cartesian axis) and pressure

          total   stress  (Ry/bohr**3)                   (kbar)     P=      -79.21
  -0.00062425   0.00000392  -0.00000090          -91.83        0.58       -0.13
   0.00000392  -0.00049244   0.00000065            0.58      -72.44        0.10
  -0.00000090   0.00000065  -0.00049866           -0.13        0.10      -73.36


     Entering Dynamics:    iteration =    24
                           time      =   0.0232 pico-seconds


ATOMIC_POSITIONS (angstrom)
Fe            0.0134178617        0.0026763199        0.0045562729
Se            1.5125111256        1.5201081545        1.5187785448


     kinetic energy (Ekin) =           0.00019952 Ry
     temperature           =          21.00102795 K 
     Ekin + Etot (const)   =        -731.00421984 Ry
     Ions kinetic stress =            0.10 (kbar)
                                      0.27           0.04           0.08
                                      0.04           0.01           0.01
                                      0.08           0.01           0.02



     Linear momentum :    0.0000000000   -0.0000000000   -0.0000000000

     Writing config-only to output data dir ./work/try_1/calculation_try_1.save/
     NEW-OLD atomic charge density approx. for the potential

     Check: negative core charge=   -0.000008

     total cpu time spent up to now is      620.2 secs

     Self-consistent Calculation

     iteration #  1     ecut=    60.00 Ry     beta= 0.70
     Davidson diagonalization with overlap
     ethr =  1.00E-06,  avg # of iterations =  3.8

     Threshold (ethr) on eigenvalues was too large:
     Diagonalizing with lowered threshold

     Davidson diagonalization with overlap
     ethr =  2.00E-09,  avg # of iterations =  3.8

     total cpu time spent up to now is      637.4 secs

     End of self-consistent calculation

     Number of k-points >= 100: set verbosity='high' to print the bands.

     the Fermi energy is    15.8441 ev

!    total energy              =    -731.00442655 Ry
     estimated scf accuracy    <       0.00000060 Ry

     convergence has been achieved in   1 iterations

     Forces acting on atoms (cartesian axes, Ry/au):

     atom    1 type  2   force =     0.00302830    0.00006703    0.00026086
     atom    2 type  1   force =    -0.00302830   -0.00006703   -0.00026086

     Total force =     0.004300     Total SCF correction =     0.000668
     SCF correction compared to forces is large: reduce conv_thr to get better values


     Computing stress (Cartesian axis) and pressure

          total   stress  (Ry/bohr**3)                   (kbar)     P=      -78.61
  -0.00062139   0.00000446  -0.00000160          -91.41        0.66       -0.24
   0.00000446  -0.00049744   0.00000496            0.66      -73.18        0.73
  -0.00000160   0.00000496  -0.00048433           -0.24        0.73      -71.25


     Entering Dynamics:    iteration =    25
                           time      =   0.0242 pico-seconds


ATOMIC_POSITIONS (angstrom)
Fe            0.0141183771        0.0027881172        0.0047535837
Se            1.5120156813        1.5200290851        1.5186389954


     kinetic energy (Ekin) =           0.00020680 Ry
     temperature           =          21.76739466 K 
     Ekin + Etot (const)   =        -731.00421975 Ry
     Ions kinetic stress =            0.10 (kbar)
                                      0.28           0.05           0.08
                                      0.05           0.01           0.01
                                      0.08           0.01           0.02



     Linear momentum :    0.0000000000   -0.0000000000   -0.0000000000

     Writing config-only to output data dir ./work/try_1/calculation_try_1.save/
     NEW-OLD atomic charge density approx. for the potential

     Check: negative core charge=   -0.000008

     total cpu time spent up to now is      640.0 secs

     Self-consistent Calculation

     iteration #  1     ecut=    60.00 Ry     beta= 0.70
     Davidson diagonalization with overlap
     ethr =  1.00E-06,  avg # of iterations =  4.0

     Threshold (ethr) on eigenvalues was too large:
     Diagonalizing with lowered threshold

     Davidson diagonalization with overlap
     ethr =  7.41E-09,  avg # of iterations =  2.9

     total cpu time spent up to now is      655.8 secs

     End of self-consistent calculation

     Number of k-points >= 100: set verbosity='high' to print the bands.

     the Fermi energy is    15.8459 ev

!    total energy              =    -731.00443531 Ry
     estimated scf accuracy    <       0.00000245 Ry

     convergence has been achieved in   1 iterations

     Forces acting on atoms (cartesian axes, Ry/au):

     atom    1 type  2   force =     0.00297905    0.00003427    0.00019779
     atom    2 type  1   force =    -0.00297905   -0.00003427   -0.00019779

     Total force =     0.004223     Total SCF correction =     0.002781
     SCF correction compared to forces is large: reduce conv_thr to get better values


     Computing stress (Cartesian axis) and pressure

          total   stress  (Ry/bohr**3)                   (kbar)     P=      -83.19
  -0.00064919   0.00000324   0.00000077          -95.50        0.48        0.11
   0.00000324  -0.00051087  -0.00000075            0.48      -75.15       -0.11
   0.00000077  -0.00000075  -0.00053648            0.11       -0.11      -78.92


     Entering Dynamics:    iteration =    26
                           time      =   0.0252 pico-seconds


ATOMIC_POSITIONS (angstrom)
Fe            0.0148312811        0.0029000570        0.0049517171
Se            1.5115114750        1.5199499149        1.5184988642


     kinetic energy (Ekin) =           0.00021375 Ry
     temperature           =          22.49916262 K 
     Ekin + Etot (const)   =        -731.00422156 Ry
     Ions kinetic stress =            0.11 (kbar)
                                      0.29           0.05           0.08
                                      0.05           0.01           0.01
                                      0.08           0.01           0.02



     Linear momentum :   -0.0000000000   -0.0000000000   -0.0000000000

     Writing config-only to output data dir ./work/try_1/calculation_try_1.save/
     NEW-OLD atomic charge density approx. for the potential

     Check: negative core charge=   -0.000008

     total cpu time spent up to now is      658.4 secs

     Self-consistent Calculation

     iteration #  1     ecut=    60.00 Ry     beta= 0.70
     Davidson diagonalization with overlap
     ethr =  1.00E-06,  avg # of iterations =  4.0

     total cpu time spent up to now is      667.2 secs

     total energy              =    -731.00438236 Ry
     estimated scf accuracy    <       0.00006989 Ry

     iteration #  2     ecut=    60.00 Ry     beta= 0.70
     Davidson diagonalization with overlap
     ethr =  2.18E-07,  avg # of iterations =  4.1

     total cpu time spent up to now is      675.4 secs

     total energy              =    -731.00431461 Ry
     estimated scf accuracy    <       0.00186924 Ry

     iteration #  3     ecut=    60.00 Ry     beta= 0.70
     Davidson diagonalization with overlap
     ethr =  2.18E-07,  avg # of iterations =  4.0

     total cpu time spent up to now is      683.5 secs

     End of self-consistent calculation

     Number of k-points >= 100: set verbosity='high' to print the bands.

     the Fermi energy is    15.8431 ev

!    total energy              =    -731.00444255 Ry
     estimated scf accuracy    <       0.00000254 Ry

     convergence has been achieved in   3 iterations

     Forces acting on atoms (cartesian axes, Ry/au):

     atom    1 type  2   force =     0.00363553    0.00016406    0.00041300
     atom    2 type  1   force =    -0.00363553   -0.00016406   -0.00041300

     Total force =     0.005180     Total SCF correction =     0.002886
     SCF correction compared to forces is large: reduce conv_thr to get better values


     Computing stress (Cartesian axis) and pressure

          total   stress  (Ry/bohr**3)                   (kbar)     P=      -76.46
  -0.00060311   0.00000292   0.00000207          -88.72        0.43        0.30
   0.00000292  -0.00046120   0.00000039            0.43      -67.84        0.06
   0.00000207   0.00000039  -0.00049505            0.30        0.06      -72.82


     Entering Dynamics:    iteration =    27
                           time      =   0.0261 pico-seconds


ATOMIC_POSITIONS (angstrom)
Fe            0.0155593039        0.0030126790        0.0051515679
Se            1.5109965759        1.5198702622        1.5183575184


     kinetic energy (Ekin) =           0.00022160 Ry
     temperature           =          23.32495147 K 
     Ekin + Etot (const)   =        -731.00422095 Ry
     Ions kinetic stress =            0.11 (kbar)
                                      0.31           0.05           0.08
                                      0.05           0.01           0.01
                                      0.08           0.01           0.02



     Linear momentum :   -0.0000000000   -0.0000000000   -0.0000000000

     Writing config-only to output data dir ./work/try_1/calculation_try_1.save/
     NEW-OLD atomic charge density approx. for the potential

     Check: negative core charge=   -0.000008

     total cpu time spent up to now is      686.2 secs

     Self-consistent Calculation

     iteration #  1     ecut=    60.00 Ry     beta= 0.70
     Davidson diagonalization with overlap
     ethr =  1.00E-06,  avg # of iterations =  4.0

     Threshold (ethr) on eigenvalues was too large:
     Diagonalizing with lowered threshold

     Davidson diagonalization with overlap
     ethr =  9.92E-08,  avg # of iterations =  1.4

     total cpu time spent up to now is      701.2 secs

     total energy              =    -731.00443612 Ry
     estimated scf accuracy    <       0.00003251 Ry

     iteration #  2     ecut=    60.00 Ry     beta= 0.70
     Davidson diagonalization with overlap
     ethr =  1.02E-07,  avg # of iterations =  4.0

     total cpu time spent up to now is      709.4 secs

     total energy              =    -731.00434982 Ry
     estimated scf accuracy    <       0.00073486 Ry

     iteration #  3     ecut=    60.00 Ry     beta= 0.70
     Davidson diagonalization with overlap
     ethr =  1.02E-07,  avg # of iterations =  4.0

     total cpu time spent up to now is      717.5 secs

     End of self-consistent calculation

     Number of k-points >= 100: set verbosity='high' to print the bands.

     the Fermi energy is    15.8471 ev

!    total energy              =    -731.00445173 Ry
     estimated scf accuracy    <       0.00000614 Ry

     convergence has been achieved in   3 iterations

     Forces acting on atoms (cartesian axes, Ry/au):

     atom    1 type  2   force =     0.00426106    0.00024838    0.00058026
     atom    2 type  1   force =    -0.00426106   -0.00024838   -0.00058026

     Total force =     0.006092     Total SCF correction =     0.001669
     SCF correction compared to forces is large: reduce conv_thr to get better values


     Computing stress (Cartesian axis) and pressure

          total   stress  (Ry/bohr**3)                   (kbar)     P=      -86.93
  -0.00067398   0.00000238   0.00000348          -99.15        0.35        0.51
   0.00000238  -0.00052723   0.00000082            0.35      -77.56        0.12
   0.00000348   0.00000082  -0.00057164            0.51        0.12      -84.09


     Entering Dynamics:    iteration =    28
                           time      =   0.0271 pico-seconds


ATOMIC_POSITIONS (angstrom)
Fe            0.0163050466        0.0031263340        0.0053538317
Se            1.5104691443        1.5197898789        1.5182144659


     kinetic energy (Ekin) =           0.00023127 Ry
     temperature           =          24.34358301 K 
     Ekin + Etot (const)   =        -731.00422046 Ry
     Ions kinetic stress =            0.12 (kbar)
                                      0.32           0.05           0.09
                                      0.05           0.01           0.01
                                      0.09           0.01           0.02



     Linear momentum :   -0.0000000000   -0.0000000000   -0.0000000000

     Writing config-only to output data dir ./work/try_1/calculation_try_1.save/
     NEW-OLD atomic charge density approx. for the potential

     Check: negative core charge=   -0.000008

     total cpu time spent up to now is      720.2 secs

     Self-consistent Calculation

     iteration #  1     ecut=    60.00 Ry     beta= 0.70
     Davidson diagonalization with overlap
     ethr =  1.00E-06,  avg # of iterations =  4.0

     total cpu time spent up to now is      729.3 secs

     total energy              =    -731.00431274 Ry
     estimated scf accuracy    <       0.00018282 Ry

     iteration #  2     ecut=    60.00 Ry     beta= 0.70
     Davidson diagonalization with overlap
     ethr =  5.71E-07,  avg # of iterations =  4.1

     total cpu time spent up to now is      738.0 secs

     total energy              =    -731.00407305 Ry
     estimated scf accuracy    <       0.00485343 Ry

     iteration #  3     ecut=    60.00 Ry     beta= 0.70
     Davidson diagonalization with overlap
     ethr =  5.71E-07,  avg # of iterations =  4.0

     total cpu time spent up to now is      746.0 secs

     End of self-consistent calculation

     Number of k-points >= 100: set verbosity='high' to print the bands.

     the Fermi energy is    15.8423 ev

!    total energy              =    -731.00445771 Ry
     estimated scf accuracy    <       0.00000699 Ry

     convergence has been achieved in   3 iterations

     Forces acting on atoms (cartesian axes, Ry/au):

     atom    1 type  2   force =     0.00388459    0.00020211    0.00048318
     atom    2 type  1   force =    -0.00388459   -0.00020211   -0.00048318

     Total force =     0.005543     Total SCF correction =     0.002623
     SCF correction compared to forces is large: reduce conv_thr to get better values


     Computing stress (Cartesian axis) and pressure

          total   stress  (Ry/bohr**3)                   (kbar)     P=      -75.31
  -0.00059429   0.00000137   0.00000534          -87.42        0.20        0.79
   0.00000137  -0.00044137   0.00000160            0.20      -64.93        0.24
   0.00000534   0.00000160  -0.00050016            0.79        0.24      -73.58


     Entering Dynamics:    iteration =    29
                           time      =   0.0281 pico-seconds


ATOMIC_POSITIONS (angstrom)
Fe            0.0170669439        0.0032408295        0.0055581050
Se            1.5099302872        1.5197089012        1.5180699923


     kinetic energy (Ekin) =           0.00024150 Ry
     temperature           =          25.41966425 K 
     Ekin + Etot (const)   =        -731.00421622 Ry
     Ions kinetic stress =            0.12 (kbar)
                                      0.34           0.05           0.09
                                      0.05           0.01           0.01
                                      0.09           0.01           0.02



     Linear momentum :    0.0000000000   -0.0000000000    0.0000000000

     Writing config-only to output data dir ./work/try_1/calculation_try_1.save/
     NEW-OLD atomic charge density approx. for the potential

     Check: negative core charge=   -0.000008

     total cpu time spent up to now is      748.6 secs

     Self-consistent Calculation

     iteration #  1     ecut=    60.00 Ry     beta= 0.70
     Davidson diagonalization with overlap
     ethr =  1.00E-06,  avg # of iterations =  3.9

     total cpu time spent up to now is      757.6 secs

     total energy              =    -731.00442436 Ry
     estimated scf accuracy    <       0.00008340 Ry

     iteration #  2     ecut=    60.00 Ry     beta= 0.70
     Davidson diagonalization with overlap
     ethr =  2.61E-07,  avg # of iterations =  4.0

     total cpu time spent up to now is      765.9 secs

     total energy              =    -731.00423856 Ry
     estimated scf accuracy    <       0.00182464 Ry

     iteration #  3     ecut=    60.00 Ry     beta= 0.70
     Davidson diagonalization with overlap
     ethr =  2.61E-07,  avg # of iterations =  4.0

     total cpu time spent up to now is      774.0 secs

     total energy              =    -731.00447380 Ry
     estimated scf accuracy    <       0.00001933 Ry

     iteration #  4     ecut=    60.00 Ry     beta= 0.70
     Davidson diagonalization with overlap
     ethr =  6.04E-08,  avg # of iterations =  1.1

     total cpu time spent up to now is      779.8 secs

     End of self-consistent calculation

     Number of k-points >= 100: set verbosity='high' to print the bands.

     the Fermi energy is    15.8446 ev

!    total energy              =    -731.00447267 Ry
     estimated scf accuracy    <       0.00000010 Ry

     convergence has been achieved in   4 iterations

     Forces acting on atoms (cartesian axes, Ry/au):

     atom    1 type  2   force =     0.00430010    0.00024280    0.00059791
     atom    2 type  1   force =    -0.00430010   -0.00024280   -0.00059791

     Total force =     0.006149     Total SCF correction =     0.001580
     SCF correction compared to forces is large: reduce conv_thr to get better values


     Computing stress (Cartesian axis) and pressure

          total   stress  (Ry/bohr**3)                   (kbar)     P=      -79.52
  -0.00062535   0.00000493  -0.00000063          -91.99        0.73       -0.09
   0.00000493  -0.00049691   0.00000315            0.73      -73.10        0.46
  -0.00000063   0.00000315  -0.00049942           -0.09        0.46      -73.47


     Entering Dynamics:    iteration =    30
                           time      =   0.0290 pico-seconds


ATOMIC_POSITIONS (angstrom)
Fe            0.0178467235        0.0033563347        0.0057648646
Se            1.5093787828        1.5196272093        1.5179237601


     kinetic energy (Ekin) =           0.00025200 Ry
     temperature           =          26.52525888 K 
     Ekin + Etot (const)   =        -731.00422067 Ry
     Ions kinetic stress =            0.13 (kbar)
                                      0.35           0.05           0.09
                                      0.05           0.01           0.01
                                      0.09           0.01           0.02



     Linear momentum :    0.0000000000   -0.0000000000    0.0000000000

     The maximum number of steps has been reached.

     End of molecular dynamics calculation

     diffusion coefficients :
     atom     1   D =       0.00000021 cm^2/s
     atom     2   D =       0.00000010 cm^2/s

     < D > =       0.00000016 cm^2/s

     Writing all to output data dir ./work/try_1/calculation_try_1.save/

     init_run     :      2.56s CPU      2.66s WALL (       1 calls)
     electrons    :    658.79s CPU    702.29s WALL (      30 calls)
     update_pot   :      4.62s CPU      4.72s WALL (      29 calls)
     forces       :     10.40s CPU     12.36s WALL (      30 calls)
     stress       :     48.04s CPU     49.52s WALL (      30 calls)

     Called by init_run:
     wfcinit      :      2.01s CPU      2.10s WALL (       1 calls)
     potinit      :      0.14s CPU      0.15s WALL (       1 calls)
     hinit0       :      0.36s CPU      0.37s WALL (       1 calls)

     Called by electrons:
     c_bands      :    558.72s CPU    598.41s WALL (      88 calls)
     sum_band     :     88.81s CPU     91.99s WALL (      88 calls)
     v_of_rho     :      0.61s CPU      0.63s WALL (     104 calls)
     newd         :      1.41s CPU      1.80s WALL (     104 calls)
     PAW_pot      :     17.30s CPU     17.73s WALL (     133 calls)
     mix_rho      :      0.03s CPU      0.04s WALL (      88 calls)

     Called by c_bands:
     init_us_2    :     14.67s CPU     15.84s WALL (   69160 calls)
     init_us_2:cp :     14.62s CPU     15.78s WALL (   69160 calls)
     cegterg      :    537.52s CPU    576.09s WALL (   22880 calls)

     Called by *egterg:
     cdiaghg      :     31.39s CPU     33.03s WALL (   92070 calls)
     h_psi        :    425.85s CPU    441.70s WALL (  103510 calls)
     s_psi        :     13.70s CPU     16.17s WALL (  103510 calls)
     g_psi        :      1.39s CPU      1.43s WALL (   80370 calls)

     Called by h_psi:
     h_psi:calbec :     15.55s CPU     21.66s WALL (  103510 calls)
     vloc_psi     :    394.35s CPU    400.34s WALL (  103510 calls)
     add_vuspsi   :     14.66s CPU     17.78s WALL (  103510 calls)

     General routines
     calbec       :     28.72s CPU     39.21s WALL (  172930 calls)
     fft          :      0.50s CPU      0.51s WALL (    1937 calls)
     ffts         :      0.02s CPU      0.02s WALL (      88 calls)
     fftw         :    425.29s CPU    431.36s WALL ( 2967160 calls)

     Parallel routines

     PWSCF        :  12m13.90s CPU  13m 2.02s WALL


   This run was terminated on:  17:43:22  30Dec2024            

=------------------------------------------------------------------------------=
   JOB DONE.
=------------------------------------------------------------------------------=
