
     Program PWSCF v.7.1 starts on 30Dec2024 at 18:11:19 

     This program is part of the open-source Quantum ESPRESSO suite
     for quantum simulation of materials; please cite
         "P. Giannozzi et al., J. Phys.:Condens. Matter 21 395502 (2009);
         "P. Giannozzi et al., J. Phys.:Condens. Matter 29 465901 (2017);
         "P. Giannozzi et al., J. Chem. Phys. 152 154105 (2020);
          URL http://www.quantum-espresso.org", 
     in publications or presentations arising from this work. More details at
     http://www.quantum-espresso.org/quote

     Parallel version (MPI), running on     1 processors

     MPI processes distributed on     1 nodes
     0 MiB available memory on the printing compute node when the environment starts

     Waiting for input...
     Reading input from standard input
Warning: card &CELL ignored
Warning: card / ignored

     Current dimensions of program PWSCF are:
     Max number of different atomic species (ntypx) = 10
     Max number of k-points (npk) =  40000
     Max angular momentum in pseudopotentials (lmaxx) =  4
     Message from routine iosys:
     BEWARE:  force calculation with tetrahedra (not recommanded)
     Message from routine iosys:
     BEWARE: stress calculation with tetrahedra (not recommanded)
     file Se.pbe-dn-kjpaw_psl.1.0.0.UPF: wavefunction(s)  4S 4P 3D renormalized
     file Fe.pbe-spn-kjpaw_psl.1.0.0.UPF: wavefunction(s)  3P 3D renormalized

     Subspace diagonalization in iterative solution of the eigenvalue problem:
     a serial algorithm will be used


     G-vector sticks info
     --------------------
     sticks:   dense  smooth     PW     G-vecs:    dense   smooth      PW
     Sum         679     679    207                12711    12711    2225

     Using Slab Decomposition



     bravais-lattice index     =            0
     lattice parameter (alat)  =       6.1303  a.u.
     unit-cell volume          =     202.8465 (a.u.)^3
     number of atoms/cell      =            2
     number of atomic types    =            2
     number of electrons       =        32.00
     number of Kohn-Sham states=           20
     kinetic-energy cutoff     =      60.0000  Ry
     charge density cutoff     =     240.0000  Ry
     scf convergence threshold =      1.0E-05
     mixing beta               =       0.7000
     number of iterations used =            8  plain     mixing
     energy convergence thresh.=      0.0E+00
     force convergence thresh. =      0.0E+00
     Exchange-correlation= SLA  PW   PBX  PBC
                           (   1   4   3   4   0   0   0)
     nstep                     =           30


     celldm(1)=   6.130275  celldm(2)=   0.000000  celldm(3)=   0.000000
     celldm(4)=   0.000000  celldm(5)=   0.000000  celldm(6)=   0.000000

     crystal axes: (cart. coord. in units of alat)
               a(1) = (   1.000000   0.000000   0.000000 )  
               a(2) = (  -0.000000   0.938348   0.000000 )  
               a(3) = (   0.000000   0.000000   0.938348 )  

     reciprocal axes: (cart. coord. in units 2 pi/alat)
               b(1) = (  1.000000  0.000000 -0.000000 )  
               b(2) = (  0.000000  1.065703  0.000000 )  
               b(3) = (  0.000000 -0.000000  1.065703 )  


     PseudoPot. # 1 for Se read from file:
     ./pseudo/Se.pbe-dn-kjpaw_psl.1.0.0.UPF
     MD5 check sum: ac240dd2bae32a30e0bf3a38df9c8785
     Pseudo is Projector augmented-wave + core cor, Zval = 16.0
     Generated using &quot;atomic&quot; code by A. Dal Corso  v.6.3
     Shape of augmentation charge: PSQ
     Using radial grid of 1211 points,  6 beta functions with: 
                l(1) =   0
                l(2) =   0
                l(3) =   1
                l(4) =   1
                l(5) =   2
                l(6) =   2
     Q(r) pseudized with 0 coefficients 


     PseudoPot. # 2 for Fe read from file:
     ./pseudo/Fe.pbe-spn-kjpaw_psl.1.0.0.UPF
     MD5 check sum: fc81f059e5c5069939230b1155715ae8
     Pseudo is Projector augmented-wave + core cor, Zval = 16.0
     Generated using &quot;atomic&quot; code by A. Dal Corso  v.6.3
     Shape of augmentation charge: PSQ
     Using radial grid of 1191 points,  6 beta functions with: 
                l(1) =   0
                l(2) =   0
                l(3) =   1
                l(4) =   1
                l(5) =   2
                l(6) =   2
     Q(r) pseudized with 0 coefficients 


     atomic species   valence    mass     pseudopotential
        Se            16.00    78.96000     Se( 1.00)
        Fe            16.00    55.84500     Fe( 1.00)

     No symmetry found



   Cartesian axes

     site n.     atom                  positions (alat units)
         1           Fe  tau(   1) = (   0.0000000   0.0000000   0.0000000  )
         2           Se  tau(   2) = (   0.4691739   0.4691739   0.4691739  )

     number of k points=   260 (tetrahedron method)

     Number of k-points >= 100: set verbosity='high' to print them.

     Dense  grid:    12711 G-vectors     FFT dimensions: (  32,  30,  30)

     Estimated max dynamical RAM per process >     176.80 MB

     Check: negative core charge=   -0.000007

     Initial potential from superposition of free atoms

     starting charge      31.9995, renormalised to      32.0000
     Starting wfcs are   19 randomized atomic wfcs +    1 random wfcs
     Checking if some PAW data can be deallocated... 

     total cpu time spent up to now is        2.6 secs

     Self-consistent Calculation

     iteration #  1     ecut=    60.00 Ry     beta= 0.70
     Davidson diagonalization with overlap
     ethr =  1.00E-02,  avg # of iterations =  3.2

     total cpu time spent up to now is        9.0 secs

     total energy              =    -730.38471609 Ry
     estimated scf accuracy    <       0.79686565 Ry

     iteration #  2     ecut=    60.00 Ry     beta= 0.70
     Davidson diagonalization with overlap
     ethr =  2.49E-03,  avg # of iterations =  5.2

     total cpu time spent up to now is       17.1 secs

     total energy              =    -729.69079665 Ry
     estimated scf accuracy    <      14.49970551 Ry

     iteration #  3     ecut=    60.00 Ry     beta= 0.70
     Davidson diagonalization with overlap
     ethr =  2.49E-03,  avg # of iterations =  4.4

     total cpu time spent up to now is       25.0 secs

     total energy              =    -730.98843689 Ry
     estimated scf accuracy    <       0.09513623 Ry

     iteration #  4     ecut=    60.00 Ry     beta= 0.70
     Davidson diagonalization with overlap
     ethr =  2.97E-04,  avg # of iterations =  2.0

     total cpu time spent up to now is       30.4 secs

     total energy              =    -730.99704808 Ry
     estimated scf accuracy    <       0.00200356 Ry

     iteration #  5     ecut=    60.00 Ry     beta= 0.70
     Davidson diagonalization with overlap
     ethr =  6.26E-06,  avg # of iterations =  5.1

     total cpu time spent up to now is       38.1 secs

     total energy              =    -730.99764601 Ry
     estimated scf accuracy    <       0.00045616 Ry

     iteration #  6     ecut=    60.00 Ry     beta= 0.70
     Davidson diagonalization with overlap
     ethr =  1.43E-06,  avg # of iterations =  2.1

     total cpu time spent up to now is       43.5 secs

     total energy              =    -730.99775547 Ry
     estimated scf accuracy    <       0.00005409 Ry

     iteration #  7     ecut=    60.00 Ry     beta= 0.70
     Davidson diagonalization with overlap
     ethr =  1.69E-07,  avg # of iterations =  2.1

     total cpu time spent up to now is       49.1 secs

     total energy              =    -730.99774386 Ry
     estimated scf accuracy    <       0.00007143 Ry

     iteration #  8     ecut=    60.00 Ry     beta= 0.70
     Davidson diagonalization with overlap
     ethr =  1.69E-07,  avg # of iterations =  1.0

     total cpu time spent up to now is       54.1 secs

     End of self-consistent calculation

     Number of k-points >= 100: set verbosity='high' to print the bands.

     the Fermi energy is    14.8863 ev

!    total energy              =    -730.99773990 Ry
     estimated scf accuracy    <       0.00000533 Ry

     convergence has been achieved in   8 iterations

     Forces acting on atoms (cartesian axes, Ry/au):

     atom    1 type  2   force =     0.01351984    0.00001506   -0.00011219
     atom    2 type  1   force =    -0.01351984   -0.00001506    0.00011219

     Total force =     0.019121     Total SCF correction =     0.000774


     Computing stress (Cartesian axis) and pressure

          total   stress  (Ry/bohr**3)                   (kbar)     P=     -137.45
  -0.00124401   0.00000098  -0.00000138         -183.00        0.14       -0.20
   0.00000098  -0.00077872   0.00000048            0.14     -114.55        0.07
  -0.00000138   0.00000048  -0.00078037           -0.20        0.07     -114.80


     Molecular Dynamics Calculation

     Starting temperature  =    10.00 K

     temperature is set once at start

     mass Se               =    78.96
     mass Fe               =    55.84
     Time step             =    20.00 a.u.,  0.9676 femto-seconds

     Entering Dynamics:    iteration =     1
                           time      =   0.0010 pico-seconds


ATOMIC_POSITIONS (angstrom)
Fe            0.0004700501        0.0001151256        0.0001904570
Se            1.5216685538        1.5219195766        1.5218662980


     kinetic energy (Ekin) =           0.00009500 Ry
     temperature           =          10.00000000 K 
     Ekin + Etot (const)   =        -730.99764489 Ry
     Ions kinetic stress =            0.05 (kbar)
                                      0.11           0.03           0.05
                                      0.03           0.01           0.01
                                      0.05           0.01           0.02



     Linear momentum :   -0.0000000000   -0.0000000000    0.0000000000

     Writing config-only to output data dir ./work/try_4/calculation_try_4.save/
     NEW-OLD atomic charge density approx. for the potential

     Check: negative core charge=   -0.000007

     total cpu time spent up to now is       56.7 secs

     Self-consistent Calculation

     iteration #  1     ecut=    60.00 Ry     beta= 0.70
     Davidson diagonalization with overlap
     ethr =  1.00E-06,  avg # of iterations =  3.0

     total cpu time spent up to now is       63.7 secs

     total energy              =    -730.99741348 Ry
     estimated scf accuracy    <       0.00043711 Ry

     iteration #  2     ecut=    60.00 Ry     beta= 0.70
     Davidson diagonalization with overlap
     ethr =  1.37E-06,  avg # of iterations =  4.1

     total cpu time spent up to now is       71.9 secs

     total energy              =    -730.99657707 Ry
     estimated scf accuracy    <       0.01373232 Ry

     iteration #  3     ecut=    60.00 Ry     beta= 0.70
     Davidson diagonalization with overlap
     ethr =  1.37E-06,  avg # of iterations =  4.1

     total cpu time spent up to now is       79.0 secs

     End of self-consistent calculation

     Number of k-points >= 100: set verbosity='high' to print the bands.

     the Fermi energy is    14.8841 ev

!    total energy              =    -730.99775988 Ry
     estimated scf accuracy    <       0.00000434 Ry

     convergence has been achieved in   3 iterations

     Forces acting on atoms (cartesian axes, Ry/au):

     atom    1 type  2   force =     0.01356244   -0.00016498   -0.00016904
     atom    2 type  1   force =    -0.01356244    0.00016498    0.00016904

     Total force =     0.019183     Total SCF correction =     0.004052
     SCF correction compared to forces is large: reduce conv_thr to get better values


     Computing stress (Cartesian axis) and pressure

          total   stress  (Ry/bohr**3)                   (kbar)     P=     -124.95
  -0.00116619   0.00000033  -0.00000084         -171.55        0.05       -0.12
   0.00000033  -0.00068552   0.00000478            0.05     -100.84        0.70
  -0.00000084   0.00000478  -0.00069653           -0.12        0.70     -102.46


     Entering Dynamics:    iteration =     2
                           time      =   0.0019 pico-seconds


ATOMIC_POSITIONS (angstrom)
Fe            0.0009965010        0.0002295651        0.0003802111
Se            1.5212962179        1.5218386385        1.5217320931


     kinetic energy (Ekin) =           0.00011543 Ry
     temperature           =          12.14967807 K 
     Ekin + Etot (const)   =        -730.99764445 Ry
     Ions kinetic stress =            0.06 (kbar)
                                      0.14           0.03           0.05
                                      0.03           0.01           0.01
                                      0.05           0.01           0.02



     Linear momentum :   -0.0000000000   -0.0000000000    0.0000000000

     Writing config-only to output data dir ./work/try_4/calculation_try_4.save/
     NEW-OLD atomic charge density approx. for the potential

     Check: negative core charge=   -0.000007

     total cpu time spent up to now is       81.8 secs

     Self-consistent Calculation

     iteration #  1     ecut=    60.00 Ry     beta= 0.70
     Davidson diagonalization with overlap
     ethr =  1.00E-06,  avg # of iterations =  3.0

     total cpu time spent up to now is       89.6 secs

     total energy              =    -730.99763247 Ry
     estimated scf accuracy    <       0.00017832 Ry

     iteration #  2     ecut=    60.00 Ry     beta= 0.70
     Davidson diagonalization with overlap
     ethr =  5.57E-07,  avg # of iterations =  4.1

     total cpu time spent up to now is       97.0 secs

     total energy              =    -730.99731473 Ry
     estimated scf accuracy    <       0.00552460 Ry

     iteration #  3     ecut=    60.00 Ry     beta= 0.70
     Davidson diagonalization with overlap
     ethr =  5.57E-07,  avg # of iterations =  4.0

     total cpu time spent up to now is      104.1 secs

     End of self-consistent calculation

     Number of k-points >= 100: set verbosity='high' to print the bands.

     the Fermi energy is    14.8828 ev

!    total energy              =    -730.99777936 Ry
     estimated scf accuracy    <       0.00000560 Ry

     convergence has been achieved in   3 iterations

     Forces acting on atoms (cartesian axes, Ry/au):

     atom    1 type  2   force =     0.01357738   -0.00019431   -0.00004706
     atom    2 type  1   force =    -0.01357738    0.00019431    0.00004706

     Total force =     0.019203     Total SCF correction =     0.003859
     SCF correction compared to forces is large: reduce conv_thr to get better values


     Computing stress (Cartesian axis) and pressure

          total   stress  (Ry/bohr**3)                   (kbar)     P=     -119.42
  -0.00113762   0.00000011   0.00000110         -167.35        0.02        0.16
   0.00000011  -0.00063594   0.00001503            0.02      -93.55        2.21
   0.00000110   0.00001503  -0.00066192            0.16        2.21      -97.37


     Entering Dynamics:    iteration =     3
                           time      =   0.0029 pico-seconds


ATOMIC_POSITIONS (angstrom)
Fe            0.0015794146        0.0003431965        0.0005697695
Se            1.5208839482        1.5217582719        1.5215980267


     kinetic energy (Ekin) =           0.00013834 Ry
     temperature           =          14.56179275 K 
     Ekin + Etot (const)   =        -730.99764101 Ry
     Ions kinetic stress =            0.07 (kbar)
                                      0.17           0.04           0.06
                                      0.04           0.01           0.01
                                      0.06           0.01           0.02



     Linear momentum :   -0.0000000000   -0.0000000000    0.0000000000

     Writing config-only to output data dir ./work/try_4/calculation_try_4.save/
     NEW-OLD atomic charge density approx. for the potential

     Check: negative core charge=   -0.000007

     total cpu time spent up to now is      106.8 secs

     Self-consistent Calculation

     iteration #  1     ecut=    60.00 Ry     beta= 0.70
     Davidson diagonalization with overlap
     ethr =  1.00E-06,  avg # of iterations =  3.8

     total cpu time spent up to now is      114.5 secs

     total energy              =    -730.99775595 Ry
     estimated scf accuracy    <       0.00005323 Ry

     iteration #  2     ecut=    60.00 Ry     beta= 0.70
     Davidson diagonalization with overlap
     ethr =  1.66E-07,  avg # of iterations =  4.0

     total cpu time spent up to now is      121.5 secs

     total energy              =    -730.99770295 Ry
     estimated scf accuracy    <       0.00110114 Ry

     iteration #  3     ecut=    60.00 Ry     beta= 0.70
     Davidson diagonalization with overlap
     ethr =  1.66E-07,  avg # of iterations =  4.0

     total cpu time spent up to now is      128.5 secs

     total energy              =    -730.99779862 Ry
     estimated scf accuracy    <       0.00002541 Ry

     iteration #  4     ecut=    60.00 Ry     beta= 0.70
     Davidson diagonalization with overlap
     ethr =  7.94E-08,  avg # of iterations =  1.1

     total cpu time spent up to now is      133.4 secs

     End of self-consistent calculation

     Number of k-points >= 100: set verbosity='high' to print the bands.

     the Fermi energy is    14.8831 ev

!    total energy              =    -730.99780107 Ry
     estimated scf accuracy    <       0.00000019 Ry

     convergence has been achieved in   4 iterations

     Forces acting on atoms (cartesian axes, Ry/au):

     atom    1 type  2   force =     0.01322209   -0.00007319    0.00007898
     atom    2 type  1   force =    -0.01322209    0.00007319   -0.00007898

     Total force =     0.018699     Total SCF correction =     0.001634


     Computing stress (Cartesian axis) and pressure

          total   stress  (Ry/bohr**3)                   (kbar)     P=     -122.27
  -0.00114185   0.00000175  -0.00000122         -167.97        0.26       -0.18
   0.00000175  -0.00067455   0.00000449            0.26      -99.23        0.66
  -0.00000122   0.00000449  -0.00067703           -0.18        0.66      -99.59


     Entering Dynamics:    iteration =     4
                           time      =   0.0039 pico-seconds


ATOMIC_POSITIONS (angstrom)
Fe            0.0022173136        0.0004565235        0.0007596563
Se            1.5204327898        1.5216781206        1.5214637279


     kinetic energy (Ekin) =           0.00016349 Ry
     temperature           =          17.20846861 K 
     Ekin + Etot (const)   =        -730.99763758 Ry
     Ions kinetic stress =            0.08 (kbar)
                                      0.21           0.04           0.07
                                      0.04           0.01           0.01
                                      0.07           0.01           0.02



     Linear momentum :   -0.0000000000   -0.0000000000   -0.0000000000

     Writing config-only to output data dir ./work/try_4/calculation_try_4.save/
     NEW-OLD atomic charge density approx. for the potential

     Check: negative core charge=   -0.000007

     total cpu time spent up to now is      136.0 secs

     Self-consistent Calculation

     iteration #  1     ecut=    60.00 Ry     beta= 0.70
     Davidson diagonalization with overlap
     ethr =  1.00E-06,  avg # of iterations =  3.9

     Threshold (ethr) on eigenvalues was too large:
     Diagonalizing with lowered threshold

     Davidson diagonalization with overlap
     ethr =  6.33E-09,  avg # of iterations =  3.1

     total cpu time spent up to now is      149.7 secs

     End of self-consistent calculation

     Number of k-points >= 100: set verbosity='high' to print the bands.

     the Fermi energy is    14.8826 ev

!    total energy              =    -730.99782106 Ry
     estimated scf accuracy    <       0.00000204 Ry

     convergence has been achieved in   1 iterations

     Forces acting on atoms (cartesian axes, Ry/au):

     atom    1 type  2   force =     0.01152920   -0.00014237   -0.00023077
     atom    2 type  1   force =    -0.01152920    0.00014237    0.00023077

     Total force =     0.016309     Total SCF correction =     0.002468
     SCF correction compared to forces is large: reduce conv_thr to get better values


     Computing stress (Cartesian axis) and pressure

          total   stress  (Ry/bohr**3)                   (kbar)     P=     -121.43
  -0.00111823  -0.00000155  -0.00000011         -164.50       -0.23       -0.02
  -0.00000155  -0.00067450  -0.00000962           -0.23      -99.22       -1.42
  -0.00000011  -0.00000962  -0.00068361           -0.02       -1.42     -100.56


     Entering Dynamics:    iteration =     5
                           time      =   0.0048 pico-seconds


ATOMIC_POSITIONS (angstrom)
Fe            0.0029031579        0.0005692585        0.0009485834
Se            1.5199477217        1.5215983880        1.5213301079


     kinetic energy (Ekin) =           0.00018880 Ry
     temperature           =          19.87289939 K 
     Ekin + Etot (const)   =        -730.99763226 Ry
     Ions kinetic stress =            0.09 (kbar)
                                      0.25           0.04           0.07
                                      0.04           0.01           0.01
                                      0.07           0.01           0.02



     Linear momentum :   -0.0000000000   -0.0000000000   -0.0000000000

     Writing config-only to output data dir ./work/try_4/calculation_try_4.save/
     NEW-OLD atomic charge density approx. for the potential

     Check: negative core charge=   -0.000007

     total cpu time spent up to now is      152.3 secs

     Self-consistent Calculation

     iteration #  1     ecut=    60.00 Ry     beta= 0.70
     Davidson diagonalization with overlap
     ethr =  1.00E-06,  avg # of iterations =  4.0

     total cpu time spent up to now is      160.0 secs

     total energy              =    -730.99783046 Ry
     estimated scf accuracy    <       0.00003481 Ry

     iteration #  2     ecut=    60.00 Ry     beta= 0.70
     Davidson diagonalization with overlap
     c_bands:  1 eigenvalues not converged
     ethr =  1.09E-07,  avg # of iterations =  4.1

     total cpu time spent up to now is      167.2 secs

     total energy              =    -730.99773222 Ry
     estimated scf accuracy    <       0.00101763 Ry

     iteration #  3     ecut=    60.00 Ry     beta= 0.70
     Davidson diagonalization with overlap
     ethr =  1.09E-07,  avg # of iterations =  4.0

     total cpu time spent up to now is      174.0 secs

     End of self-consistent calculation

     Number of k-points >= 100: set verbosity='high' to print the bands.

     the Fermi energy is    14.8861 ev

!    total energy              =    -730.99784373 Ry
     estimated scf accuracy    <       0.00000681 Ry

     convergence has been achieved in   3 iterations

     Forces acting on atoms (cartesian axes, Ry/au):

     atom    1 type  2   force =     0.01264976    0.00001120    0.00003430
     atom    2 type  1   force =    -0.01264976   -0.00001120   -0.00003430

     Total force =     0.017890     Total SCF correction =     0.003251
     SCF correction compared to forces is large: reduce conv_thr to get better values


     Computing stress (Cartesian axis) and pressure

          total   stress  (Ry/bohr**3)                   (kbar)     P=     -127.69
  -0.00115141  -0.00000724  -0.00000304         -169.38       -1.07       -0.45
  -0.00000724  -0.00071610  -0.00001688           -1.07     -105.34       -2.48
  -0.00000304  -0.00001688  -0.00073660           -0.45       -2.48     -108.36


     Entering Dynamics:    iteration =     6
                           time      =   0.0058 pico-seconds


ATOMIC_POSITIONS (angstrom)
Fe            0.0036416074        0.0006820400        0.0011376532
Se            1.5194254483        1.5215186225        1.5211963870


     kinetic energy (Ekin) =           0.00021551 Ry
     temperature           =          22.68456284 K 
     Ekin + Etot (const)   =        -730.99762821 Ry
     Ions kinetic stress =            0.10 (kbar)
                                      0.29           0.05           0.08
                                      0.05           0.01           0.01
                                      0.08           0.01           0.02



     Linear momentum :   -0.0000000000   -0.0000000000   -0.0000000000

     Writing config-only to output data dir ./work/try_4/calculation_try_4.save/
     NEW-OLD atomic charge density approx. for the potential

     Check: negative core charge=   -0.000007

     total cpu time spent up to now is      176.6 secs

     Self-consistent Calculation

     iteration #  1     ecut=    60.00 Ry     beta= 0.70
     Davidson diagonalization with overlap
     ethr =  1.00E-06,  avg # of iterations =  4.0

     total cpu time spent up to now is      184.3 secs

     total energy              =    -730.99774122 Ry
     estimated scf accuracy    <       0.00018536 Ry

     iteration #  2     ecut=    60.00 Ry     beta= 0.70
     Davidson diagonalization with overlap
     ethr =  5.79E-07,  avg # of iterations =  4.1

     total cpu time spent up to now is      191.7 secs

     total energy              =    -730.99741511 Ry
     estimated scf accuracy    <       0.00514780 Ry

     iteration #  3     ecut=    60.00 Ry     beta= 0.70
     Davidson diagonalization with overlap
     ethr =  5.79E-07,  avg # of iterations =  4.0

     total cpu time spent up to now is      199.0 secs

     total energy              =    -730.99786989 Ry
     estimated scf accuracy    <       0.00002199 Ry

     iteration #  4     ecut=    60.00 Ry     beta= 0.70
     Davidson diagonalization with overlap
     ethr =  6.87E-08,  avg # of iterations =  1.2

     total cpu time spent up to now is      203.9 secs

     End of self-consistent calculation

     Number of k-points >= 100: set verbosity='high' to print the bands.

     the Fermi energy is    14.8838 ev

!    total energy              =    -730.99787740 Ry
     estimated scf accuracy    <       0.00000080 Ry

     convergence has been achieved in   4 iterations

     Forces acting on atoms (cartesian axes, Ry/au):

     atom    1 type  2   force =     0.01351667   -0.00004090    0.00018872
     atom    2 type  1   force =    -0.01351667    0.00004090   -0.00018872

     Total force =     0.019117     Total SCF correction =     0.001772


     Computing stress (Cartesian axis) and pressure

          total   stress  (Ry/bohr**3)                   (kbar)     P=     -123.06
  -0.00113493   0.00000064  -0.00000163         -166.95        0.09       -0.24
   0.00000064  -0.00068948  -0.00000247            0.09     -101.43       -0.36
  -0.00000163  -0.00000247  -0.00068517           -0.24       -0.36     -100.79


     Entering Dynamics:    iteration =     7
                           time      =   0.0068 pico-seconds


ATOMIC_POSITIONS (angstrom)
Fe            0.0044362673        0.0007946515        0.0013275077
Se            1.5188634196        1.5214389773        1.5210621111


     kinetic energy (Ekin) =           0.00024678 Ry
     temperature           =          25.97603893 K 
     Ekin + Etot (const)   =        -730.99763061 Ry
     Ions kinetic stress =            0.12 (kbar)
                                      0.33           0.05           0.08
                                      0.05           0.01           0.01
                                      0.08           0.01           0.02



     Linear momentum :   -0.0000000000   -0.0000000000   -0.0000000000

     Writing config-only to output data dir ./work/try_4/calculation_try_4.save/
     NEW-OLD atomic charge density approx. for the potential

     Check: negative core charge=   -0.000007

     total cpu time spent up to now is      206.5 secs

     Self-consistent Calculation

     iteration #  1     ecut=    60.00 Ry     beta= 0.70
     Davidson diagonalization with overlap
     ethr =  1.00E-06,  avg # of iterations =  4.3

     Threshold (ethr) on eigenvalues was too large:
     Diagonalizing with lowered threshold

     Davidson diagonalization with overlap
     ethr =  2.95E-08,  avg # of iterations =  2.0

     total cpu time spent up to now is      219.2 secs

     End of self-consistent calculation

     Number of k-points >= 100: set verbosity='high' to print the bands.

     the Fermi energy is    14.8794 ev

!    total energy              =    -730.99790027 Ry
     estimated scf accuracy    <       0.00000963 Ry

     convergence has been achieved in   1 iterations

     Forces acting on atoms (cartesian axes, Ry/au):

     atom    1 type  2   force =     0.01149832   -0.00018446   -0.00039960
     atom    2 type  1   force =    -0.01149832    0.00018446    0.00039960

     Total force =     0.016273     Total SCF correction =     0.001771
     SCF correction compared to forces is large: reduce conv_thr to get better values


     Computing stress (Cartesian axis) and pressure

          total   stress  (Ry/bohr**3)                   (kbar)     P=     -112.28
  -0.00107245   0.00000120   0.00000372         -157.76        0.18        0.55
   0.00000120  -0.00058964   0.00000436            0.18      -86.74        0.64
   0.00000372   0.00000436  -0.00062771            0.55        0.64      -92.34


     Entering Dynamics:    iteration =     8
                           time      =   0.0077 pico-seconds


ATOMIC_POSITIONS (angstrom)
Fe            0.0052787441        0.0009064958        0.0015157005
Se            1.5182675722        1.5213598746        1.5209290104


     kinetic energy (Ekin) =           0.00027866 Ry
     temperature           =          29.33129613 K 
     Ekin + Etot (const)   =        -730.99762161 Ry
     Ions kinetic stress =            0.13 (kbar)
                                      0.38           0.05           0.09
                                      0.05           0.01           0.01
                                      0.09           0.01           0.02



     Linear momentum :   -0.0000000000   -0.0000000000   -0.0000000000

     Writing config-only to output data dir ./work/try_4/calculation_try_4.save/
     NEW-OLD atomic charge density approx. for the potential

     Check: negative core charge=   -0.000007

     total cpu time spent up to now is      221.7 secs

     Self-consistent Calculation

     iteration #  1     ecut=    60.00 Ry     beta= 0.70
     Davidson diagonalization with overlap
     ethr =  1.00E-06,  avg # of iterations =  4.8

     total cpu time spent up to now is      229.8 secs

     total energy              =    -730.99762537 Ry
     estimated scf accuracy    <       0.00042962 Ry

     iteration #  2     ecut=    60.00 Ry     beta= 0.70
     Davidson diagonalization with overlap
     ethr =  1.34E-06,  avg # of iterations =  4.1

     total cpu time spent up to now is      237.4 secs

     total energy              =    -730.99663483 Ry
     estimated scf accuracy    <       0.01361510 Ry

     iteration #  3     ecut=    60.00 Ry     beta= 0.70
     Davidson diagonalization with overlap
     ethr =  1.34E-06,  avg # of iterations =  4.1

     total cpu time spent up to now is      244.7 secs

     total energy              =    -730.99793863 Ry
     estimated scf accuracy    <       0.00001790 Ry

     iteration #  4     ecut=    60.00 Ry     beta= 0.70
     Davidson diagonalization with overlap
     ethr =  5.59E-08,  avg # of iterations =  1.9

     total cpu time spent up to now is      250.0 secs

     End of self-consistent calculation

     Number of k-points >= 100: set verbosity='high' to print the bands.

     the Fermi energy is    14.8842 ev

!    total energy              =    -730.99794050 Ry
     estimated scf accuracy    <       0.00000047 Ry

     convergence has been achieved in   4 iterations

     Forces acting on atoms (cartesian axes, Ry/au):

     atom    1 type  2   force =     0.01360374   -0.00001714    0.00008415
     atom    2 type  1   force =    -0.01360374    0.00001714   -0.00008415

     Total force =     0.019239     Total SCF correction =     0.001841


     Computing stress (Cartesian axis) and pressure

          total   stress  (Ry/bohr**3)                   (kbar)     P=     -124.35
  -0.00114799   0.00000226   0.00000021         -168.88        0.33        0.03
   0.00000226  -0.00069437   0.00000038            0.33     -102.15        0.06
   0.00000021   0.00000038  -0.00069362            0.03        0.06     -102.04


     Entering Dynamics:    iteration =     9
                           time      =   0.0087 pico-seconds


ATOMIC_POSITIONS (angstrom)
Fe            0.0061777933        0.0010182689        0.0017042433
Se            1.5176317135        1.5212808224        1.5207956623


     kinetic energy (Ekin) =           0.00031273 Ry
     temperature           =          32.91748677 K 
     Ekin + Etot (const)   =        -730.99762777 Ry
     Ions kinetic stress =            0.15 (kbar)
                                      0.43           0.05           0.09
                                      0.05           0.01           0.01
                                      0.09           0.01           0.02



     Linear momentum :   -0.0000000000   -0.0000000000   -0.0000000000

     Writing config-only to output data dir ./work/try_4/calculation_try_4.save/
     NEW-OLD atomic charge density approx. for the potential

     Check: negative core charge=   -0.000007

     total cpu time spent up to now is      252.6 secs

     Self-consistent Calculation

     iteration #  1     ecut=    60.00 Ry     beta= 0.70
     Davidson diagonalization with overlap
     ethr =  1.00E-06,  avg # of iterations =  4.5

     Threshold (ethr) on eigenvalues was too large:
     Diagonalizing with lowered threshold

     Davidson diagonalization with overlap
     ethr =  5.58E-08,  avg # of iterations =  1.6

     total cpu time spent up to now is      265.2 secs

     total energy              =    -730.99795760 Ry
     estimated scf accuracy    <       0.00001828 Ry

     iteration #  2     ecut=    60.00 Ry     beta= 0.70
     Davidson diagonalization with overlap
     ethr =  5.71E-08,  avg # of iterations =  4.1

     total cpu time spent up to now is      272.2 secs

     total energy              =    -730.99793647 Ry
     estimated scf accuracy    <       0.00052032 Ry

     iteration #  3     ecut=    60.00 Ry     beta= 0.70
     Davidson diagonalization with overlap
     ethr =  5.71E-08,  avg # of iterations =  4.0

     total cpu time spent up to now is      278.9 secs

     End of self-consistent calculation

     Number of k-points >= 100: set verbosity='high' to print the bands.

     the Fermi energy is    14.8826 ev

!    total energy              =    -730.99797330 Ry
     estimated scf accuracy    <       0.00000219 Ry

     convergence has been achieved in   3 iterations

     Forces acting on atoms (cartesian axes, Ry/au):

     atom    1 type  2   force =     0.01401366    0.00001061    0.00024067
     atom    2 type  1   force =    -0.01401366   -0.00001061   -0.00024067

     Total force =     0.019821     Total SCF correction =     0.001743


     Computing stress (Cartesian axis) and pressure

          total   stress  (Ry/bohr**3)                   (kbar)     P=     -121.30
  -0.00112582   0.00000340  -0.00000099         -165.61        0.50       -0.15
   0.00000340  -0.00068907   0.00000036            0.50     -101.37        0.05
  -0.00000099   0.00000036  -0.00065881           -0.15        0.05      -96.91


     Entering Dynamics:    iteration =    10
                           time      =   0.0097 pico-seconds


ATOMIC_POSITIONS (angstrom)
Fe            0.0071351196        0.0011300861        0.0018937869
Se            1.5169546378        1.5212017389        1.5206616063


     kinetic energy (Ekin) =           0.00035290 Ry
     temperature           =          37.14567152 K 
     Ekin + Etot (const)   =        -730.99762040 Ry
     Ions kinetic stress =            0.17 (kbar)
                                      0.48           0.06           0.10
                                      0.06           0.01           0.01
                                      0.10           0.01           0.02



     Linear momentum :   -0.0000000000   -0.0000000000   -0.0000000000

     Writing config-only to output data dir ./work/try_4/calculation_try_4.save/
     NEW-OLD atomic charge density approx. for the potential

     Check: negative core charge=   -0.000007

     total cpu time spent up to now is      281.5 secs

     Self-consistent Calculation

     iteration #  1     ecut=    60.00 Ry     beta= 0.70
     Davidson diagonalization with overlap
     ethr =  1.00E-06,  avg # of iterations =  4.9

     total cpu time spent up to now is      289.6 secs

     total energy              =    -730.99799075 Ry
     estimated scf accuracy    <       0.00003210 Ry

     iteration #  2     ecut=    60.00 Ry     beta= 0.70
     Davidson diagonalization with overlap
     ethr =  1.00E-07,  avg # of iterations =  3.7

     total cpu time spent up to now is      296.1 secs

     total energy              =    -730.99792131 Ry
     estimated scf accuracy    <       0.00071640 Ry

     iteration #  3     ecut=    60.00 Ry     beta= 0.70
     Davidson diagonalization with overlap
     ethr =  1.00E-07,  avg # of iterations =  4.0

     total cpu time spent up to now is      302.8 secs

     total energy              =    -730.99801081 Ry
     estimated scf accuracy    <       0.00002156 Ry

     iteration #  4     ecut=    60.00 Ry     beta= 0.70
     Davidson diagonalization with overlap
     ethr =  6.74E-08,  avg # of iterations =  1.0

     total cpu time spent up to now is      307.5 secs

     End of self-consistent calculation

     Number of k-points >= 100: set verbosity='high' to print the bands.

     the Fermi energy is    14.8839 ev

!    total energy              =    -730.99801188 Ry
     estimated scf accuracy    <       0.00000030 Ry

     convergence has been achieved in   4 iterations

     Forces acting on atoms (cartesian axes, Ry/au):

     atom    1 type  2   force =     0.01407367    0.00002278    0.00020599
     atom    2 type  1   force =    -0.01407367   -0.00002278   -0.00020599

     Total force =     0.019905     Total SCF correction =     0.001629


     Computing stress (Cartesian axis) and pressure

          total   stress  (Ry/bohr**3)                   (kbar)     P=     -122.43
  -0.00113068   0.00000123   0.00000021         -166.33        0.18        0.03
   0.00000123  -0.00068320  -0.00000313            0.18     -100.50       -0.46
   0.00000021  -0.00000313  -0.00068287            0.03       -0.46     -100.45


     Entering Dynamics:    iteration =    11
                           time      =   0.0106 pico-seconds


ATOMIC_POSITIONS (angstrom)
Fe            0.0081509727        0.0012419980        0.0020841871
Se            1.5162361688        1.5211225884        1.5205269444


     kinetic energy (Ekin) =           0.00039642 Ry
     temperature           =          41.72654266 K 
     Ekin + Etot (const)   =        -730.99761546 Ry
     Ions kinetic stress =            0.19 (kbar)
                                      0.55           0.06           0.11
                                      0.06           0.01           0.01
                                      0.11           0.01           0.02



     Linear momentum :   -0.0000000000   -0.0000000000    0.0000000000

     Writing config-only to output data dir ./work/try_4/calculation_try_4.save/
     NEW-OLD atomic charge density approx. for the potential

     Check: negative core charge=   -0.000007

     total cpu time spent up to now is      310.1 secs

     Self-consistent Calculation

     iteration #  1     ecut=    60.00 Ry     beta= 0.70
     Davidson diagonalization with overlap
     ethr =  1.00E-06,  avg # of iterations =  5.0

     Threshold (ethr) on eigenvalues was too large:
     Diagonalizing with lowered threshold

     Davidson diagonalization with overlap
     ethr =  2.23E-08,  avg # of iterations =  2.0

     total cpu time spent up to now is      323.6 secs

     End of self-consistent calculation

     Number of k-points >= 100: set verbosity='high' to print the bands.

     the Fermi energy is    14.8799 ev

!    total energy              =    -730.99804343 Ry
     estimated scf accuracy    <       0.00000730 Ry

     convergence has been achieved in   1 iterations

     Forces acting on atoms (cartesian axes, Ry/au):

     atom    1 type  2   force =     0.01161829   -0.00023112   -0.00023715
     atom    2 type  1   force =    -0.01161829    0.00023112    0.00023715

     Total force =     0.016437     Total SCF correction =     0.002630
     SCF correction compared to forces is large: reduce conv_thr to get better values


     Computing stress (Cartesian axis) and pressure

          total   stress  (Ry/bohr**3)                   (kbar)     P=     -110.80
  -0.00104949   0.00000415   0.00000062         -154.39        0.61        0.09
   0.00000415  -0.00061580   0.00001030            0.61      -90.59        1.51
   0.00000062   0.00001030  -0.00059434            0.09        1.51      -87.43


     Entering Dynamics:    iteration =    12
                           time      =   0.0116 pico-seconds


ATOMIC_POSITIONS (angstrom)
Fe            0.0092151415        0.0013529488        0.0022736011
Se            1.5154835281        1.5210441177        1.5203929800


     kinetic energy (Ekin) =           0.00043837 Ry
     temperature           =          46.14196804 K 
     Ekin + Etot (const)   =        -730.99760506 Ry
     Ions kinetic stress =            0.21 (kbar)
                                      0.61           0.07           0.11
                                      0.07           0.01           0.01
                                      0.11           0.01           0.02



     Linear momentum :    0.0000000000   -0.0000000000    0.0000000000

     Writing config-only to output data dir ./work/try_4/calculation_try_4.save/
     NEW-OLD atomic charge density approx. for the potential

     Check: negative core charge=   -0.000007

     total cpu time spent up to now is      326.1 secs

     Self-consistent Calculation

     iteration #  1     ecut=    60.00 Ry     beta= 0.70
     Davidson diagonalization with overlap
     ethr =  1.00E-06,  avg # of iterations =  5.0

     total cpu time spent up to now is      334.3 secs

     total energy              =    -730.99782307 Ry
     estimated scf accuracy    <       0.00037041 Ry

     iteration #  2     ecut=    60.00 Ry     beta= 0.70
     Davidson diagonalization with overlap
     ethr =  1.16E-06,  avg # of iterations =  4.1

     total cpu time spent up to now is      341.9 secs

     total energy              =    -730.99694475 Ry
     estimated scf accuracy    <       0.01201123 Ry

     iteration #  3     ecut=    60.00 Ry     beta= 0.70
     Davidson diagonalization with overlap
     ethr =  1.16E-06,  avg # of iterations =  4.0

     total cpu time spent up to now is      349.1 secs

     End of self-consistent calculation

     Number of k-points >= 100: set verbosity='high' to print the bands.

     the Fermi energy is    14.8856 ev

!    total energy              =    -730.99808748 Ry
     estimated scf accuracy    <       0.00000861 Ry

     convergence has been achieved in   3 iterations

     Forces acting on atoms (cartesian axes, Ry/au):

     atom    1 type  2   force =     0.01372537   -0.00009186    0.00004122
     atom    2 type  1   force =    -0.01372537    0.00009186   -0.00004122

     Total force =     0.019411     Total SCF correction =     0.003491
     SCF correction compared to forces is large: reduce conv_thr to get better values


     Computing stress (Cartesian axis) and pressure

          total   stress  (Ry/bohr**3)                   (kbar)     P=     -122.54
  -0.00112930   0.00000575  -0.00000029         -166.13        0.85       -0.04
   0.00000575  -0.00071363   0.00001855            0.85     -104.98        2.73
  -0.00000029   0.00001855  -0.00065617           -0.04        2.73      -96.53


     Entering Dynamics:    iteration =    13
                           time      =   0.0126 pico-seconds


ATOMIC_POSITIONS (angstrom)
Fe            0.0103363886        0.0014635176        0.0024631866
Se            1.5146905184        1.5209659172        1.5202588944


     kinetic energy (Ekin) =           0.00048185 Ry
     temperature           =          50.71834375 K 
     Ekin + Etot (const)   =        -730.99760563 Ry
     Ions kinetic stress =            0.23 (kbar)
                                      0.67           0.07           0.12
                                      0.07           0.01           0.01
                                      0.12           0.01           0.02



     Linear momentum :    0.0000000000   -0.0000000000   -0.0000000000

     Writing config-only to output data dir ./work/try_4/calculation_try_4.save/
     NEW-OLD atomic charge density approx. for the potential

     Check: negative core charge=   -0.000007

     total cpu time spent up to now is      351.8 secs

     Self-consistent Calculation

     iteration #  1     ecut=    60.00 Ry     beta= 0.70
     Davidson diagonalization with overlap
     ethr =  1.00E-06,  avg # of iterations =  5.0

     total cpu time spent up to now is      360.1 secs

     total energy              =    -730.99806477 Ry
     estimated scf accuracy    <       0.00010816 Ry

     iteration #  2     ecut=    60.00 Ry     beta= 0.70
     Davidson diagonalization with overlap
     ethr =  3.38E-07,  avg # of iterations =  3.9

     total cpu time spent up to now is      367.1 secs

     total energy              =    -730.99792188 Ry
     estimated scf accuracy    <       0.00210656 Ry

     iteration #  3     ecut=    60.00 Ry     beta= 0.70
     Davidson diagonalization with overlap
     ethr =  3.38E-07,  avg # of iterations =  4.0

     total cpu time spent up to now is      374.0 secs

     total energy              =    -730.99812340 Ry
     estimated scf accuracy    <       0.00006923 Ry

     iteration #  4     ecut=    60.00 Ry     beta= 0.70
     Davidson diagonalization with overlap
     ethr =  2.16E-07,  avg # of iterations =  1.1

     total cpu time spent up to now is      378.7 secs

     End of self-consistent calculation

     Number of k-points >= 100: set verbosity='high' to print the bands.

     the Fermi energy is    14.8841 ev

!    total energy              =    -730.99813830 Ry
     estimated scf accuracy    <       0.00000046 Ry

     convergence has been achieved in   4 iterations

     Forces acting on atoms (cartesian axes, Ry/au):

     atom    1 type  2   force =     0.01446940    0.00010421    0.00028121
     atom    2 type  1   force =    -0.01446940   -0.00010421   -0.00028121

     Total force =     0.020467     Total SCF correction =     0.001902


     Computing stress (Cartesian axis) and pressure

          total   stress  (Ry/bohr**3)                   (kbar)     P=     -121.35
  -0.00111778   0.00000359   0.00000159         -164.43        0.53        0.23
   0.00000359  -0.00068154   0.00000937            0.53     -100.26        1.38
   0.00000159   0.00000937  -0.00067548            0.23        1.38      -99.37


     Entering Dynamics:    iteration =    14
                           time      =   0.0135 pico-seconds


ATOMIC_POSITIONS (angstrom)
Fe            0.0115178081        0.0015745197        0.0026539415
Se            1.5138549514        1.5208874102        1.5201239817


     kinetic energy (Ekin) =           0.00053298 Ry
     temperature           =          56.10044570 K 
     Ekin + Etot (const)   =        -730.99760532 Ry
     Ions kinetic stress =            0.26 (kbar)
                                      0.75           0.07           0.12
                                      0.07           0.01           0.01
                                      0.12           0.01           0.02



     Linear momentum :   -0.0000000000   -0.0000000000    0.0000000000

     Writing config-only to output data dir ./work/try_4/calculation_try_4.save/
     NEW-OLD atomic charge density approx. for the potential

     Check: negative core charge=   -0.000007

     total cpu time spent up to now is      381.3 secs

     Self-consistent Calculation

     iteration #  1     ecut=    60.00 Ry     beta= 0.70
     Davidson diagonalization with overlap
     ethr =  1.00E-06,  avg # of iterations =  5.0

     Threshold (ethr) on eigenvalues was too large:
     Diagonalizing with lowered threshold

     Davidson diagonalization with overlap
     ethr =  1.00E-08,  avg # of iterations =  2.5

     total cpu time spent up to now is      395.1 secs

     End of self-consistent calculation

     Number of k-points >= 100: set verbosity='high' to print the bands.

     the Fermi energy is    14.8848 ev

!    total energy              =    -730.99818515 Ry
     estimated scf accuracy    <       0.00000326 Ry

     convergence has been achieved in   1 iterations

     Forces acting on atoms (cartesian axes, Ry/au):

     atom    1 type  2   force =     0.01219762   -0.00014338   -0.00011741
     atom    2 type  1   force =    -0.01219762    0.00014338    0.00011741

     Total force =     0.017252     Total SCF correction =     0.002649
     SCF correction compared to forces is large: reduce conv_thr to get better values


     Computing stress (Cartesian axis) and pressure

          total   stress  (Ry/bohr**3)                   (kbar)     P=     -122.70
  -0.00112562  -0.00000080  -0.00000045         -165.59       -0.12       -0.07
  -0.00000080  -0.00069210  -0.00002081           -0.12     -101.81       -3.06
  -0.00000045  -0.00002081  -0.00068447           -0.07       -3.06     -100.69


     Entering Dynamics:    iteration =    15
                           time      =   0.0145 pico-seconds


ATOMIC_POSITIONS (angstrom)
Fe            0.0127499526        0.0016849256        0.0028442081
Se            1.5129835088        1.5208093248        1.5199894144


     kinetic energy (Ekin) =           0.00058374 Ry
     temperature           =          61.44368224 K 
     Ekin + Etot (const)   =        -730.99760141 Ry
     Ions kinetic stress =            0.28 (kbar)
                                      0.82           0.08           0.13
                                      0.08           0.01           0.01
                                      0.13           0.01           0.02



     Linear momentum :   -0.0000000000   -0.0000000000    0.0000000000

     Writing config-only to output data dir ./work/try_4/calculation_try_4.save/
     NEW-OLD atomic charge density approx. for the potential

     Check: negative core charge=   -0.000007

     total cpu time spent up to now is      397.7 secs

     Self-consistent Calculation

     iteration #  1     ecut=    60.00 Ry     beta= 0.70
     Davidson diagonalization with overlap
     ethr =  1.00E-06,  avg # of iterations =  5.0

     Threshold (ethr) on eigenvalues was too large:
     Diagonalizing with lowered threshold

     Davidson diagonalization with overlap
     ethr =  7.52E-08,  avg # of iterations =  1.2

     total cpu time spent up to now is      410.8 secs

     total energy              =    -730.99821406 Ry
     estimated scf accuracy    <       0.00002430 Ry

     iteration #  2     ecut=    60.00 Ry     beta= 0.70
     Davidson diagonalization with overlap
     ethr =  7.59E-08,  avg # of iterations =  3.6

     total cpu time spent up to now is      417.6 secs

     total energy              =    -730.99819982 Ry
     estimated scf accuracy    <       0.00044147 Ry

     iteration #  3     ecut=    60.00 Ry     beta= 0.70
     Davidson diagonalization with overlap
     ethr =  7.59E-08,  avg # of iterations =  4.0

     total cpu time spent up to now is      424.3 secs

     total energy              =    -730.99823521 Ry
     estimated scf accuracy    <       0.00001721 Ry

     iteration #  4     ecut=    60.00 Ry     beta= 0.70
     Davidson diagonalization with overlap
     ethr =  5.38E-08,  avg # of iterations =  1.1

     total cpu time spent up to now is      429.0 secs

     End of self-consistent calculation

     Number of k-points >= 100: set verbosity='high' to print the bands.

     the Fermi energy is    14.8841 ev

!    total energy              =    -730.99823680 Ry
     estimated scf accuracy    <       0.00000026 Ry

     convergence has been achieved in   4 iterations

     Forces acting on atoms (cartesian axes, Ry/au):

     atom    1 type  2   force =     0.01468860    0.00010098    0.00027553
     atom    2 type  1   force =    -0.01468860   -0.00010098   -0.00027553

     Total force =     0.020777     Total SCF correction =     0.001649


     Computing stress (Cartesian axis) and pressure

          total   stress  (Ry/bohr**3)                   (kbar)     P=     -121.66
  -0.00111640   0.00000132   0.00000156         -164.23        0.19        0.23
   0.00000132  -0.00068137  -0.00000247            0.19     -100.23       -0.36
   0.00000156  -0.00000247  -0.00068322            0.23       -0.36     -100.50


     Entering Dynamics:    iteration =    16
                           time      =   0.0155 pico-seconds


ATOMIC_POSITIONS (angstrom)
Fe            0.0140431810        0.0017957515        0.0030356205
Se            1.5120688642        1.5207309425        1.5198540366


     kinetic energy (Ekin) =           0.00063733 Ry
     temperature           =          67.08473766 K 
     Ekin + Etot (const)   =        -730.99759947 Ry
     Ions kinetic stress =            0.31 (kbar)
                                      0.90           0.08           0.14
                                      0.08           0.01           0.01
                                      0.14           0.01           0.02



     Linear momentum :   -0.0000000000    0.0000000000    0.0000000000

     Writing config-only to output data dir ./work/try_4/calculation_try_4.save/
     NEW-OLD atomic charge density approx. for the potential

     Check: negative core charge=   -0.000007

     total cpu time spent up to now is      431.7 secs

     Self-consistent Calculation

     iteration #  1     ecut=    60.00 Ry     beta= 0.70
     Davidson diagonalization with overlap
     ethr =  1.00E-06,  avg # of iterations =  5.0

     Threshold (ethr) on eigenvalues was too large:
     Diagonalizing with lowered threshold

     Davidson diagonalization with overlap
     ethr =  1.04E-08,  avg # of iterations =  2.5

     total cpu time spent up to now is      446.0 secs

     End of self-consistent calculation

     Number of k-points >= 100: set verbosity='high' to print the bands.

     the Fermi energy is    14.8855 ev

!    total energy              =    -730.99828731 Ry
     estimated scf accuracy    <       0.00000339 Ry

     convergence has been achieved in   1 iterations

     Forces acting on atoms (cartesian axes, Ry/au):

     atom    1 type  2   force =     0.01240350   -0.00015522   -0.00009596
     atom    2 type  1   force =    -0.01240350    0.00015522    0.00009596

     Total force =     0.017543     Total SCF correction =     0.002866
     SCF correction compared to forces is large: reduce conv_thr to get better values


     Computing stress (Cartesian axis) and pressure

          total   stress  (Ry/bohr**3)                   (kbar)     P=     -122.02
  -0.00111644   0.00000447   0.00000086         -164.23        0.66        0.13
   0.00000447  -0.00069974   0.00000429            0.66     -102.94        0.63
   0.00000086   0.00000429  -0.00067228            0.13        0.63      -98.90


     Entering Dynamics:    iteration =    17
                           time      =   0.0164 pico-seconds


ATOMIC_POSITIONS (angstrom)
Fe            0.0153879906        0.0019059318        0.0032266339
Se            1.5111177384        1.5206530167        1.5197189411


     kinetic energy (Ekin) =           0.00069379 Ry
     temperature           =          73.02759132 K 
     Ekin + Etot (const)   =        -730.99759352 Ry
     Ions kinetic stress =            0.34 (kbar)
                                      0.98           0.08           0.14
                                      0.08           0.01           0.01
                                      0.14           0.01           0.02



     Linear momentum :   -0.0000000000    0.0000000000   -0.0000000000

     Writing config-only to output data dir ./work/try_4/calculation_try_4.save/
     NEW-OLD atomic charge density approx. for the potential

     Check: negative core charge=   -0.000007

     total cpu time spent up to now is      448.6 secs

     Self-consistent Calculation

     iteration #  1     ecut=    60.00 Ry     beta= 0.70
     Davidson diagonalization with overlap
     ethr =  1.00E-06,  avg # of iterations =  5.0

     total cpu time spent up to now is      457.3 secs

     total energy              =    -730.99829734 Ry
     estimated scf accuracy    <       0.00006151 Ry

     iteration #  2     ecut=    60.00 Ry     beta= 0.70
     Davidson diagonalization with overlap
     ethr =  1.92E-07,  avg # of iterations =  4.0

     total cpu time spent up to now is      464.4 secs

     total energy              =    -730.99820392 Ry
     estimated scf accuracy    <       0.00160952 Ry

     iteration #  3     ecut=    60.00 Ry     beta= 0.70
     Davidson diagonalization with overlap
     ethr =  1.92E-07,  avg # of iterations =  4.0

     total cpu time spent up to now is      471.1 secs

     total energy              =    -730.99834259 Ry
     estimated scf accuracy    <       0.00001303 Ry

     iteration #  4     ecut=    60.00 Ry     beta= 0.70
     Davidson diagonalization with overlap
     ethr =  4.07E-08,  avg # of iterations =  1.1

     total cpu time spent up to now is      475.8 secs

     End of self-consistent calculation

     Number of k-points >= 100: set verbosity='high' to print the bands.

     the Fermi energy is    14.8843 ev

!    total energy              =    -730.99834660 Ry
     estimated scf accuracy    <       0.00000034 Ry

     convergence has been achieved in   4 iterations

     Forces acting on atoms (cartesian axes, Ry/au):

     atom    1 type  2   force =     0.01482762    0.00008064    0.00030412
     atom    2 type  1   force =    -0.01482762   -0.00008064   -0.00030412

     Total force =     0.020974     Total SCF correction =     0.002434
     SCF correction compared to forces is large: reduce conv_thr to get better values


     Computing stress (Cartesian axis) and pressure

          total   stress  (Ry/bohr**3)                   (kbar)     P=     -120.61
  -0.00110468   0.00000329   0.00000225         -162.50        0.48        0.33
   0.00000329  -0.00067903   0.00000736            0.48      -99.89        1.08
   0.00000225   0.00000736  -0.00067587            0.33        1.08      -99.42


     Entering Dynamics:    iteration =    18
                           time      =   0.0174 pico-seconds


ATOMIC_POSITIONS (angstrom)
Fe            0.0167944622        0.0020164475        0.0034189120
Se            1.5101230017        1.5205748537        1.5195829511


     kinetic energy (Ekin) =           0.00075303 Ry
     temperature           =          79.26260929 K 
     Ekin + Etot (const)   =        -730.99759357 Ry
     Ions kinetic stress =            0.36 (kbar)
                                      1.06           0.09           0.15
                                      0.09           0.01           0.01
                                      0.15           0.01           0.02



     Linear momentum :    0.0000000000   -0.0000000000   -0.0000000000

     Writing config-only to output data dir ./work/try_4/calculation_try_4.save/
     NEW-OLD atomic charge density approx. for the potential

     Check: negative core charge=   -0.000007

     total cpu time spent up to now is      478.4 secs

     Self-consistent Calculation

     iteration #  1     ecut=    60.00 Ry     beta= 0.70
     Davidson diagonalization with overlap
     ethr =  1.00E-06,  avg # of iterations =  5.0

     Threshold (ethr) on eigenvalues was too large:
     Diagonalizing with lowered threshold

     Davidson diagonalization with overlap
     ethr =  9.68E-09,  avg # of iterations =  2.6

     total cpu time spent up to now is      492.9 secs

     End of self-consistent calculation

     Number of k-points >= 100: set verbosity='high' to print the bands.

     the Fermi energy is    14.8851 ev

!    total energy              =    -730.99840496 Ry
     estimated scf accuracy    <       0.00000311 Ry

     convergence has been achieved in   1 iterations

     Forces acting on atoms (cartesian axes, Ry/au):

     atom    1 type  2   force =     0.01277859   -0.00007824   -0.00007000
     atom    2 type  1   force =    -0.01277859    0.00007824    0.00007000

     Total force =     0.018072     Total SCF correction =     0.002342
     SCF correction compared to forces is large: reduce conv_thr to get better values


     Computing stress (Cartesian axis) and pressure

          total   stress  (Ry/bohr**3)                   (kbar)     P=     -120.50
  -0.00110226   0.00000057   0.00000081         -162.15        0.08        0.12
   0.00000057  -0.00067944  -0.00001906            0.08      -99.95       -2.80
   0.00000081  -0.00001906  -0.00067564            0.12       -2.80      -99.39


     Entering Dynamics:    iteration =    19
                           time      =   0.0184 pico-seconds


ATOMIC_POSITIONS (angstrom)
Fe            0.0182540749        0.0021266378        0.0036108990
Se            1.5090906807        1.5204969209        1.5194471670


     kinetic energy (Ekin) =           0.00081564 Ry
     temperature           =          85.85297713 K 
     Ekin + Etot (const)   =        -730.99758932 Ry
     Ions kinetic stress =            0.39 (kbar)
                                      1.16           0.09           0.15
                                      0.09           0.01           0.01
                                      0.15           0.01           0.02



     Linear momentum :   -0.0000000000   -0.0000000000   -0.0000000000

     Writing config-only to output data dir ./work/try_4/calculation_try_4.save/
     NEW-OLD atomic charge density approx. for the potential

     Check: negative core charge=   -0.000007

     total cpu time spent up to now is      495.6 secs

     Self-consistent Calculation

     iteration #  1     ecut=    60.00 Ry     beta= 0.70
     Davidson diagonalization with overlap
     ethr =  1.00E-06,  avg # of iterations =  5.0

     Threshold (ethr) on eigenvalues was too large:
     Diagonalizing with lowered threshold

     Davidson diagonalization with overlap
     ethr =  6.85E-08,  avg # of iterations =  1.4

     total cpu time spent up to now is      508.8 secs

     total energy              =    -730.99844763 Ry
     estimated scf accuracy    <       0.00002206 Ry

     iteration #  2     ecut=    60.00 Ry     beta= 0.70
     Davidson diagonalization with overlap
     ethr =  6.89E-08,  avg # of iterations =  3.6

     total cpu time spent up to now is      515.7 secs

     total energy              =    -730.99843396 Ry
     estimated scf accuracy    <       0.00043656 Ry

     iteration #  3     ecut=    60.00 Ry     beta= 0.70
     Davidson diagonalization with overlap
     ethr =  6.89E-08,  avg # of iterations =  4.0

     total cpu time spent up to now is      522.5 secs

     total energy              =    -730.99846844 Ry
     estimated scf accuracy    <       0.00001221 Ry

     iteration #  4     ecut=    60.00 Ry     beta= 0.70
     Davidson diagonalization with overlap
     ethr =  3.82E-08,  avg # of iterations =  1.1

     total cpu time spent up to now is      527.4 secs

     End of self-consistent calculation

     Number of k-points >= 100: set verbosity='high' to print the bands.

     the Fermi energy is    14.8846 ev

!    total energy              =    -730.99846946 Ry
     estimated scf accuracy    <       0.00000033 Ry

     convergence has been achieved in   4 iterations

     Forces acting on atoms (cartesian axes, Ry/au):

     atom    1 type  2   force =     0.01540794    0.00011871    0.00030394
     atom    2 type  1   force =    -0.01540794   -0.00011871   -0.00030394

     Total force =     0.021795     Total SCF correction =     0.001869


     Computing stress (Cartesian axis) and pressure

          total   stress  (Ry/bohr**3)                   (kbar)     P=     -120.93
  -0.00110263   0.00000228   0.00000264         -162.20        0.34        0.39
   0.00000228  -0.00068149   0.00000196            0.34     -100.25        0.29
   0.00000264   0.00000196  -0.00068202            0.39        0.29     -100.33


     Entering Dynamics:    iteration =    20
                           time      =   0.0194 pico-seconds


ATOMIC_POSITIONS (angstrom)
Fe            0.0197777629        0.0022373218        0.0038041499
Se            1.5080130419        1.5204186389        1.5193104889


     kinetic energy (Ekin) =           0.00088221 Ry
     temperature           =          92.86005797 K 
     Ekin + Etot (const)   =        -730.99758724 Ry
     Ions kinetic stress =            0.43 (kbar)
                                      1.25           0.09           0.16
                                      0.09           0.01           0.01
                                      0.16           0.01           0.02



     Linear momentum :   -0.0000000000    0.0000000000   -0.0000000000

     Writing config-only to output data dir ./work/try_4/calculation_try_4.save/
     NEW-OLD atomic charge density approx. for the potential

     Check: negative core charge=   -0.000007

     total cpu time spent up to now is      530.0 secs

     Self-consistent Calculation

     iteration #  1     ecut=    60.00 Ry     beta= 0.70
     Davidson diagonalization with overlap
     ethr =  1.00E-06,  avg # of iterations =  5.0

     Threshold (ethr) on eigenvalues was too large:
     Diagonalizing with lowered threshold

     Davidson diagonalization with overlap
     ethr =  1.11E-08,  avg # of iterations =  2.5

     total cpu time spent up to now is      544.3 secs

     End of self-consistent calculation

     Number of k-points >= 100: set verbosity='high' to print the bands.

     the Fermi energy is    14.8857 ev

!    total energy              =    -730.99853319 Ry
     estimated scf accuracy    <       0.00000359 Ry

     convergence has been achieved in   1 iterations

     Forces acting on atoms (cartesian axes, Ry/au):

     atom    1 type  2   force =     0.01271546   -0.00011117   -0.00006027
     atom    2 type  1   force =    -0.01271546    0.00011117    0.00006027

     Total force =     0.017983     Total SCF correction =     0.003441
     SCF correction compared to forces is large: reduce conv_thr to get better values


     Computing stress (Cartesian axis) and pressure

          total   stress  (Ry/bohr**3)                   (kbar)     P=     -119.63
  -0.00109075   0.00000339   0.00000118         -160.46        0.50        0.17
   0.00000339  -0.00068755  -0.00000800            0.50     -101.14       -1.18
   0.00000118  -0.00000800  -0.00066146            0.17       -1.18      -97.30


     Entering Dynamics:    iteration =    21
                           time      =   0.0203 pico-seconds


ATOMIC_POSITIONS (angstrom)
Fe            0.0213543295        0.0023475435        0.0039971502
Se            1.5068980045        1.5203406838        1.5191739882


     kinetic energy (Ekin) =           0.00095129 Ry
     temperature           =         100.13073701 K 
     Ekin + Etot (const)   =        -730.99758191 Ry
     Ions kinetic stress =            0.46 (kbar)
                                      1.35           0.10           0.17
                                      0.10           0.01           0.01
                                      0.17           0.01           0.02



     Linear momentum :   -0.0000000000    0.0000000000   -0.0000000000

     Writing config-only to output data dir ./work/try_4/calculation_try_4.save/
     NEW-OLD atomic charge density approx. for the potential

     Check: negative core charge=   -0.000007

     total cpu time spent up to now is      546.9 secs

     Self-consistent Calculation

     iteration #  1     ecut=    60.00 Ry     beta= 0.70
     Davidson diagonalization with overlap
     ethr =  1.00E-06,  avg # of iterations =  5.0

     total cpu time spent up to now is      555.6 secs

     total energy              =    -730.99856848 Ry
     estimated scf accuracy    <       0.00004307 Ry

     iteration #  2     ecut=    60.00 Ry     beta= 0.70
     Davidson diagonalization with overlap
     ethr =  1.35E-07,  avg # of iterations =  3.9

     total cpu time spent up to now is      562.7 secs

     total energy              =    -730.99851416 Ry
     estimated scf accuracy    <       0.00103040 Ry

     iteration #  3     ecut=    60.00 Ry     beta= 0.70
     Davidson diagonalization with overlap
     ethr =  1.35E-07,  avg # of iterations =  4.0

     total cpu time spent up to now is      569.4 secs

     total energy              =    -730.99860299 Ry
     estimated scf accuracy    <       0.00001420 Ry

     iteration #  4     ecut=    60.00 Ry     beta= 0.70
     Davidson diagonalization with overlap
     ethr =  4.44E-08,  avg # of iterations =  1.0

     total cpu time spent up to now is      574.1 secs

     End of self-consistent calculation

     Number of k-points >= 100: set verbosity='high' to print the bands.

     the Fermi energy is    14.8848 ev

!    total energy              =    -730.99860594 Ry
     estimated scf accuracy    <       0.00000036 Ry

     convergence has been achieved in   4 iterations

     Forces acting on atoms (cartesian axes, Ry/au):

     atom    1 type  2   force =     0.01558178    0.00011823    0.00032025
     atom    2 type  1   force =    -0.01558178   -0.00011823   -0.00032025

     Total force =     0.022041     Total SCF correction =     0.002760
     SCF correction compared to forces is large: reduce conv_thr to get better values


     Computing stress (Cartesian axis) and pressure

          total   stress  (Ry/bohr**3)                   (kbar)     P=     -119.66
  -0.00108850   0.00000243   0.00000236         -160.12        0.36        0.35
   0.00000243  -0.00067697  -0.00000632            0.36      -99.59       -0.93
   0.00000236  -0.00000632  -0.00067480            0.35       -0.93      -99.27


     Entering Dynamics:    iteration =    22
                           time      =   0.0213 pico-seconds


ATOMIC_POSITIONS (angstrom)
Fe            0.0229956943        0.0024582568        0.0041914823
Se            1.5057371379        1.5202623810        1.5190365455


     kinetic energy (Ekin) =           0.00102347 Ry
     temperature           =         107.72868980 K 
     Ekin + Etot (const)   =        -730.99758247 Ry
     Ions kinetic stress =            0.49 (kbar)
                                      1.46           0.10           0.18
                                      0.10           0.01           0.01
                                      0.18           0.01           0.02



     Linear momentum :   -0.0000000000    0.0000000000   -0.0000000000

     Writing config-only to output data dir ./work/try_4/calculation_try_4.save/
     NEW-OLD atomic charge density approx. for the potential

     Check: negative core charge=   -0.000007

     total cpu time spent up to now is      576.7 secs

     Self-consistent Calculation

     iteration #  1     ecut=    60.00 Ry     beta= 0.70
     Davidson diagonalization with overlap
     ethr =  1.00E-06,  avg # of iterations =  5.0

     Threshold (ethr) on eigenvalues was too large:
     Diagonalizing with lowered threshold

     Davidson diagonalization with overlap
     ethr =  1.15E-08,  avg # of iterations =  2.6

     total cpu time spent up to now is      590.9 secs

     End of self-consistent calculation

     Number of k-points >= 100: set verbosity='high' to print the bands.

     the Fermi energy is    14.8859 ev

!    total energy              =    -730.99867515 Ry
     estimated scf accuracy    <       0.00000372 Ry

     convergence has been achieved in   1 iterations

     Forces acting on atoms (cartesian axes, Ry/au):

     atom    1 type  2   force =     0.01317689   -0.00011215   -0.00007814
     atom    2 type  1   force =    -0.01317689    0.00011215    0.00007814

     Total force =     0.018636     Total SCF correction =     0.002732
     SCF correction compared to forces is large: reduce conv_thr to get better values


     Computing stress (Cartesian axis) and pressure

          total   stress  (Ry/bohr**3)                   (kbar)     P=     -119.42
  -0.00108460   0.00000458   0.00000395         -159.55        0.67        0.58
   0.00000458  -0.00068006   0.00001820            0.67     -100.04        2.68
   0.00000395   0.00001820  -0.00067081            0.58        2.68      -98.68


     Entering Dynamics:    iteration =    23
                           time      =   0.0223 pico-seconds


ATOMIC_POSITIONS (angstrom)
Fe            0.0246918565        0.0025685038        0.0043854895
Se            1.5045375156        1.5201844081        1.5188993326


     kinetic energy (Ekin) =           0.00109958 Ry
     temperature           =         115.73946822 K 
     Ekin + Etot (const)   =        -730.99757558 Ry
     Ions kinetic stress =            0.53 (kbar)
                                      1.57           0.10           0.18
                                      0.10           0.01           0.01
                                      0.18           0.01           0.02



     Linear momentum :   -0.0000000000    0.0000000000   -0.0000000000

     Writing config-only to output data dir ./work/try_4/calculation_try_4.save/
     NEW-OLD atomic charge density approx. for the potential

     Check: negative core charge=   -0.000007

     total cpu time spent up to now is      593.5 secs

     Self-consistent Calculation

     iteration #  1     ecut=    60.00 Ry     beta= 0.70
     Davidson diagonalization with overlap
     ethr =  1.00E-06,  avg # of iterations =  5.0

     total cpu time spent up to now is      602.0 secs

     total energy              =    -730.99872630 Ry
     estimated scf accuracy    <       0.00003854 Ry

     iteration #  2     ecut=    60.00 Ry     beta= 0.70
     Davidson diagonalization with overlap
     ethr =  1.20E-07,  avg # of iterations =  4.0

     total cpu time spent up to now is      608.9 secs

     total energy              =    -730.99866876 Ry
     estimated scf accuracy    <       0.00095630 Ry

     iteration #  3     ecut=    60.00 Ry     beta= 0.70
     Davidson diagonalization with overlap
     ethr =  1.20E-07,  avg # of iterations =  4.0

     total cpu time spent up to now is      615.5 secs

     End of self-consistent calculation

     Number of k-points >= 100: set verbosity='high' to print the bands.

     the Fermi energy is    14.8819 ev

!    total energy              =    -730.99874810 Ry
     estimated scf accuracy    <       0.00000907 Ry

     convergence has been achieved in   3 iterations

     Forces acting on atoms (cartesian axes, Ry/au):

     atom    1 type  2   force =     0.01554157    0.00006315    0.00024249
     atom    2 type  1   force =    -0.01554157   -0.00006315   -0.00024249

     Total force =     0.021982     Total SCF correction =     0.004251
     SCF correction compared to forces is large: reduce conv_thr to get better values


     Computing stress (Cartesian axis) and pressure

          total   stress  (Ry/bohr**3)                   (kbar)     P=     -111.13
  -0.00102644   0.00000565   0.00000432         -151.00        0.83        0.64
   0.00000565  -0.00063050   0.00003100            0.83      -92.75        4.56
   0.00000432   0.00003100  -0.00060935            0.64        4.56      -89.64


     Entering Dynamics:    iteration =    24
                           time      =   0.0232 pico-seconds


ATOMIC_POSITIONS (angstrom)
Fe            0.0264526498        0.0026790134        0.0045805051
Se            1.5032921825        1.5201062495        1.5187614065


     kinetic energy (Ekin) =           0.00117831 Ry
     temperature           =         124.02686018 K 
     Ekin + Etot (const)   =        -730.99756979 Ry
     Ions kinetic stress =            0.57 (kbar)
                                      1.68           0.11           0.19
                                      0.11           0.01           0.01
                                      0.19           0.01           0.02



     Linear momentum :   -0.0000000000    0.0000000000   -0.0000000000

     Writing config-only to output data dir ./work/try_4/calculation_try_4.save/
     NEW-OLD atomic charge density approx. for the potential

     Check: negative core charge=   -0.000007

     total cpu time spent up to now is      618.1 secs

     Self-consistent Calculation

     iteration #  1     ecut=    60.00 Ry     beta= 0.70
     Davidson diagonalization with overlap
     ethr =  1.00E-06,  avg # of iterations =  5.0

     total cpu time spent up to now is      626.7 secs

     total energy              =    -730.99866483 Ry
     estimated scf accuracy    <       0.00024746 Ry

     iteration #  2     ecut=    60.00 Ry     beta= 0.70
     Davidson diagonalization with overlap
     ethr =  7.73E-07,  avg # of iterations =  4.0

     total cpu time spent up to now is      633.8 secs

     total energy              =    -730.99809676 Ry
     estimated scf accuracy    <       0.00746403 Ry

     iteration #  3     ecut=    60.00 Ry     beta= 0.70
     Davidson diagonalization with overlap
     ethr =  7.73E-07,  avg # of iterations =  4.0

     total cpu time spent up to now is      640.7 secs

     total energy              =    -730.99883173 Ry
     estimated scf accuracy    <       0.00002027 Ry

     iteration #  4     ecut=    60.00 Ry     beta= 0.70
     Davidson diagonalization with overlap
     ethr =  6.33E-08,  avg # of iterations =  1.4

     total cpu time spent up to now is      645.8 secs

     End of self-consistent calculation

     Number of k-points >= 100: set verbosity='high' to print the bands.

     the Fermi energy is    14.8859 ev

!    total energy              =    -730.99883825 Ry
     estimated scf accuracy    <       0.00000056 Ry

     convergence has been achieved in   4 iterations

     Forces acting on atoms (cartesian axes, Ry/au):

     atom    1 type  2   force =     0.01664384    0.00011900    0.00029557
     atom    2 type  1   force =    -0.01664384   -0.00011900   -0.00029557

     Total force =     0.023542     Total SCF correction =     0.002624
     SCF correction compared to forces is large: reduce conv_thr to get better values


     Computing stress (Cartesian axis) and pressure

          total   stress  (Ry/bohr**3)                   (kbar)     P=     -121.01
  -0.00108974   0.00000279   0.00000379         -160.31        0.41        0.56
   0.00000279  -0.00068616   0.00000079            0.41     -100.94        0.12
   0.00000379   0.00000079  -0.00069198            0.56        0.12     -101.79


     Entering Dynamics:    iteration =    25
                           time      =   0.0242 pico-seconds


ATOMIC_POSITIONS (angstrom)
Fe            0.0282826581        0.0027900179        0.0047767498
Se            1.5019978966        1.5200277408        1.5186226110


     kinetic energy (Ekin) =           0.00126999 Ry
     temperature           =         133.67694791 K 
     Ekin + Etot (const)   =        -730.99756826 Ry
     Ions kinetic stress =            0.61 (kbar)
                                      1.81           0.11           0.20
                                      0.11           0.01           0.01
                                      0.20           0.01           0.02



     Linear momentum :    0.0000000000    0.0000000000    0.0000000000

     Writing config-only to output data dir ./work/try_4/calculation_try_4.save/
     NEW-OLD atomic charge density approx. for the potential

     Check: negative core charge=   -0.000007

     total cpu time spent up to now is      648.5 secs

     Self-consistent Calculation

     iteration #  1     ecut=    60.00 Ry     beta= 0.70
     Davidson diagonalization with overlap
     ethr =  1.00E-06,  avg # of iterations =  5.0

     Threshold (ethr) on eigenvalues was too large:
     Diagonalizing with lowered threshold

     Davidson diagonalization with overlap
     ethr =  3.90E-08,  avg # of iterations =  2.1

     total cpu time spent up to now is      662.4 secs

     total energy              =    -730.99891336 Ry
     estimated scf accuracy    <       0.00001246 Ry

     iteration #  2     ecut=    60.00 Ry     beta= 0.70
     Davidson diagonalization with overlap
     ethr =  3.89E-08,  avg # of iterations =  3.4

     total cpu time spent up to now is      669.3 secs

     total energy              =    -730.99890126 Ry
     estimated scf accuracy    <       0.00025066 Ry

     iteration #  3     ecut=    60.00 Ry     beta= 0.70
     Davidson diagonalization with overlap
     ethr =  3.89E-08,  avg # of iterations =  4.0

     total cpu time spent up to now is      676.5 secs

     End of self-consistent calculation

     Number of k-points >= 100: set verbosity='high' to print the bands.

     the Fermi energy is    14.8826 ev

!    total energy              =    -730.99892028 Ry
     estimated scf accuracy    <       0.00000594 Ry

     convergence has been achieved in   3 iterations

     Forces acting on atoms (cartesian axes, Ry/au):

     atom    1 type  2   force =     0.01712640    0.00015801    0.00033212
     atom    2 type  1   force =    -0.01712640   -0.00015801   -0.00033212

     Total force =     0.024226     Total SCF correction =     0.002709
     SCF correction compared to forces is large: reduce conv_thr to get better values


     Computing stress (Cartesian axis) and pressure

          total   stress  (Ry/bohr**3)                   (kbar)     P=     -114.95
  -0.00104390   0.00000192   0.00000443         -153.56        0.28        0.65
   0.00000192  -0.00063240  -0.00000288            0.28      -93.03       -0.42
   0.00000443  -0.00000288  -0.00066789            0.65       -0.42      -98.25


     Entering Dynamics:    iteration =    26
                           time      =   0.0252 pico-seconds


ATOMIC_POSITIONS (angstrom)
Fe            0.0301838882        0.0029016794        0.0049743757
Se            1.5006532386        1.5199487674        1.5184828387


     kinetic energy (Ekin) =           0.00136996 Ry
     temperature           =         144.19925368 K 
     Ekin + Etot (const)   =        -730.99755032 Ry
     Ions kinetic stress =            0.66 (kbar)
                                      1.96           0.12           0.21
                                      0.12           0.01           0.01
                                      0.21           0.01           0.02



     Linear momentum :    0.0000000000    0.0000000000    0.0000000000

     Writing config-only to output data dir ./work/try_4/calculation_try_4.save/
     NEW-OLD atomic charge density approx. for the potential

     Check: negative core charge=   -0.000007

     total cpu time spent up to now is      679.1 secs

     Self-consistent Calculation

     iteration #  1     ecut=    60.00 Ry     beta= 0.70
     Davidson diagonalization with overlap
     ethr =  1.00E-06,  avg # of iterations =  5.0

     total cpu time spent up to now is      688.2 secs

     total energy              =    -730.99883765 Ry
     estimated scf accuracy    <       0.00024241 Ry

     iteration #  2     ecut=    60.00 Ry     beta= 0.70
     Davidson diagonalization with overlap
     ethr =  7.58E-07,  avg # of iterations =  4.1

     total cpu time spent up to now is      695.7 secs

     total energy              =    -730.99827710 Ry
     estimated scf accuracy    <       0.00755191 Ry

     iteration #  3     ecut=    60.00 Ry     beta= 0.70
     Davidson diagonalization with overlap
     ethr =  7.58E-07,  avg # of iterations =  4.0

     total cpu time spent up to now is      702.6 secs

     total energy              =    -730.99901339 Ry
     estimated scf accuracy    <       0.00001719 Ry

     iteration #  4     ecut=    60.00 Ry     beta= 0.70
     Davidson diagonalization with overlap
     ethr =  5.37E-08,  avg # of iterations =  1.7

     total cpu time spent up to now is      707.6 secs

     End of self-consistent calculation

     Number of k-points >= 100: set verbosity='high' to print the bands.

     the Fermi energy is    14.8862 ev

!    total energy              =    -730.99901712 Ry
     estimated scf accuracy    <       0.00000055 Ry

     convergence has been achieved in   4 iterations

     Forces acting on atoms (cartesian axes, Ry/au):

     atom    1 type  2   force =     0.01727712    0.00013135    0.00031894
     atom    2 type  1   force =    -0.01727712   -0.00013135   -0.00031894

     Total force =     0.024438     Total SCF correction =     0.002909
     SCF correction compared to forces is large: reduce conv_thr to get better values


     Computing stress (Cartesian axis) and pressure

          total   stress  (Ry/bohr**3)                   (kbar)     P=     -121.06
  -0.00108299   0.00000313   0.00000366         -159.31        0.46        0.54
   0.00000313  -0.00069536  -0.00000158            0.46     -102.29       -0.23
   0.00000366  -0.00000158  -0.00069045            0.54       -0.23     -101.57


     Entering Dynamics:    iteration =    27
                           time      =   0.0261 pico-seconds


ATOMIC_POSITIONS (angstrom)
Fe            0.0321569669        0.0030138872        0.0051733280
Se            1.4992577652        1.5198694077        1.5183421284


     kinetic energy (Ekin) =           0.00147574 Ry
     temperature           =         155.33360722 K 
     Ekin + Etot (const)   =        -730.99754139 Ry
     Ions kinetic stress =            0.71 (kbar)
                                      2.11           0.12           0.22
                                      0.12           0.01           0.01
                                      0.22           0.01           0.02



     Linear momentum :    0.0000000000    0.0000000000    0.0000000000

     Writing config-only to output data dir ./work/try_4/calculation_try_4.save/
     NEW-OLD atomic charge density approx. for the potential

     Check: negative core charge=   -0.000007

     total cpu time spent up to now is      710.4 secs

     Self-consistent Calculation

     iteration #  1     ecut=    60.00 Ry     beta= 0.70
     Davidson diagonalization with overlap
     ethr =  1.00E-06,  avg # of iterations =  5.0

     Threshold (ethr) on eigenvalues was too large:
     Diagonalizing with lowered threshold

     Davidson diagonalization with overlap
     ethr =  3.46E-08,  avg # of iterations =  2.1

     total cpu time spent up to now is      724.5 secs

     total energy              =    -730.99910272 Ry
     estimated scf accuracy    <       0.00001098 Ry

     iteration #  2     ecut=    60.00 Ry     beta= 0.70
     Davidson diagonalization with overlap
     ethr =  3.43E-08,  avg # of iterations =  3.3

     total cpu time spent up to now is      731.2 secs

     total energy              =    -730.99909355 Ry
     estimated scf accuracy    <       0.00018970 Ry

     iteration #  3     ecut=    60.00 Ry     beta= 0.70
     Davidson diagonalization with overlap
     ethr =  3.43E-08,  avg # of iterations =  3.9

     total cpu time spent up to now is      737.9 secs

     End of self-consistent calculation

     Number of k-points >= 100: set verbosity='high' to print the bands.

     the Fermi energy is    14.8824 ev

!    total energy              =    -730.99910739 Ry
     estimated scf accuracy    <       0.00000732 Ry

     convergence has been achieved in   3 iterations

     Forces acting on atoms (cartesian axes, Ry/au):

     atom    1 type  2   force =     0.01768593    0.00013548    0.00034548
     atom    2 type  1   force =    -0.01768593   -0.00013548   -0.00034548

     Total force =     0.025017     Total SCF correction =     0.002783
     SCF correction compared to forces is large: reduce conv_thr to get better values


     Computing stress (Cartesian axis) and pressure

          total   stress  (Ry/bohr**3)                   (kbar)     P=     -113.50
  -0.00102659   0.00000332   0.00000277         -151.02        0.49        0.41
   0.00000332  -0.00066126  -0.00000463            0.49      -97.27       -0.68
   0.00000277  -0.00000463  -0.00062676            0.41       -0.68      -92.20


     Entering Dynamics:    iteration =    28
                           time      =   0.0271 pico-seconds


ATOMIC_POSITIONS (angstrom)
Fe            0.0342035943        0.0031266584        0.0053737170
Se            1.4978102740        1.5197896495        1.5182004019


     kinetic energy (Ekin) =           0.00158730 Ry
     temperature           =         167.07693032 K 
     Ekin + Etot (const)   =        -730.99752008 Ry
     Ions kinetic stress =            0.77 (kbar)
                                      2.27           0.13           0.23
                                      0.13           0.01           0.01
                                      0.23           0.01           0.02



     Linear momentum :    0.0000000000    0.0000000000    0.0000000000

     Writing config-only to output data dir ./work/try_4/calculation_try_4.save/
     NEW-OLD atomic charge density approx. for the potential

     Check: negative core charge=   -0.000007

     total cpu time spent up to now is      740.5 secs

     Self-consistent Calculation

     iteration #  1     ecut=    60.00 Ry     beta= 0.70
     Davidson diagonalization with overlap
     ethr =  1.00E-06,  avg # of iterations =  5.0

     total cpu time spent up to now is      749.1 secs

     total energy              =    -730.99895588 Ry
     estimated scf accuracy    <       0.00034676 Ry

     iteration #  2     ecut=    60.00 Ry     beta= 0.70
     Davidson diagonalization with overlap
     ethr =  1.08E-06,  avg # of iterations =  4.1

     total cpu time spent up to now is      756.8 secs

     total energy              =    -730.99815199 Ry
     estimated scf accuracy    <       0.01101089 Ry

     iteration #  3     ecut=    60.00 Ry     beta= 0.70
     Davidson diagonalization with overlap
     ethr =  1.08E-06,  avg # of iterations =  4.0

     total cpu time spent up to now is      764.1 secs

     total energy              =    -730.99921106 Ry
     estimated scf accuracy    <       0.00001626 Ry

     iteration #  4     ecut=    60.00 Ry     beta= 0.70
     Davidson diagonalization with overlap
     ethr =  5.08E-08,  avg # of iterations =  1.9

     total cpu time spent up to now is      769.5 secs

     End of self-consistent calculation

     Number of k-points >= 100: set verbosity='high' to print the bands.

     the Fermi energy is    14.8867 ev

!    total energy              =    -730.99921497 Ry
     estimated scf accuracy    <       0.00000059 Ry

     convergence has been achieved in   4 iterations

     Forces acting on atoms (cartesian axes, Ry/au):

     atom    1 type  2   force =     0.01781690    0.00013757    0.00032973
     atom    2 type  1   force =    -0.01781690   -0.00013757   -0.00032973

     Total force =     0.025202     Total SCF correction =     0.003099
     SCF correction compared to forces is large: reduce conv_thr to get better values


     Computing stress (Cartesian axis) and pressure

          total   stress  (Ry/bohr**3)                   (kbar)     P=     -121.04
  -0.00107546   0.00000309   0.00000452         -158.21        0.46        0.67
   0.00000309  -0.00069494  -0.00000148            0.46     -102.23       -0.22
   0.00000452  -0.00000148  -0.00069796            0.67       -0.22     -102.67


     Entering Dynamics:    iteration =    29
                           time      =   0.0281 pico-seconds


ATOMIC_POSITIONS (angstrom)
Fe            0.0363243149        0.0032400017        0.0055754772
Se            1.4963103799        1.5197094867        1.5180577057


     kinetic energy (Ekin) =           0.00170479 Ry
     temperature           =         179.44342047 K 
     Ekin + Etot (const)   =        -730.99751018 Ry
     Ions kinetic stress =            0.82 (kbar)
                                      2.44           0.13           0.24
                                      0.13           0.01           0.01
                                      0.24           0.01           0.02



     Linear momentum :    0.0000000000    0.0000000000    0.0000000000

     Writing config-only to output data dir ./work/try_4/calculation_try_4.save/
     NEW-OLD atomic charge density approx. for the potential

     Check: negative core charge=   -0.000007

     total cpu time spent up to now is      772.2 secs

     Self-consistent Calculation

     iteration #  1     ecut=    60.00 Ry     beta= 0.70
     Davidson diagonalization with overlap
     ethr =  1.00E-06,  avg # of iterations =  5.0

     Threshold (ethr) on eigenvalues was too large:
     Diagonalizing with lowered threshold

     Davidson diagonalization with overlap
     ethr =  3.84E-08,  avg # of iterations =  2.1

     total cpu time spent up to now is      786.3 secs

     total energy              =    -730.99930922 Ry
     estimated scf accuracy    <       0.00001216 Ry

     iteration #  2     ecut=    60.00 Ry     beta= 0.70
     Davidson diagonalization with overlap
     ethr =  3.80E-08,  avg # of iterations =  3.3

     total cpu time spent up to now is      792.9 secs

     total energy              =    -730.99929834 Ry
     estimated scf accuracy    <       0.00021668 Ry

     iteration #  3     ecut=    60.00 Ry     beta= 0.70
     Davidson diagonalization with overlap
     ethr =  3.80E-08,  avg # of iterations =  3.9

     total cpu time spent up to now is      799.6 secs

     End of self-consistent calculation

     Number of k-points >= 100: set verbosity='high' to print the bands.

     the Fermi energy is    14.8829 ev

!    total energy              =    -730.99931494 Ry
     estimated scf accuracy    <       0.00000724 Ry

     convergence has been achieved in   3 iterations

     Forces acting on atoms (cartesian axes, Ry/au):

     atom    1 type  2   force =     0.01823304    0.00016634    0.00035723
     atom    2 type  1   force =    -0.01823304   -0.00016634   -0.00035723

     Total force =     0.025791     Total SCF correction =     0.002979
     SCF correction compared to forces is large: reduce conv_thr to get better values


     Computing stress (Cartesian axis) and pressure

          total   stress  (Ry/bohr**3)                   (kbar)     P=     -113.55
  -0.00101902   0.00000217   0.00000514         -149.90        0.32        0.76
   0.00000217  -0.00063171  -0.00000522            0.32      -92.93       -0.77
   0.00000514  -0.00000522  -0.00066497            0.76       -0.77      -97.82


     Entering Dynamics:    iteration =    30
                           time      =   0.0290 pico-seconds


ATOMIC_POSITIONS (angstrom)
Fe            0.0385208594        0.0033540367        0.0057787229
Se            1.4947568588        1.5196288346        1.5179139587


     kinetic energy (Ekin) =           0.00182842 Ry
     temperature           =         192.45658122 K 
     Ekin + Etot (const)   =        -730.99748651 Ry
     Ions kinetic stress =            0.88 (kbar)
                                      2.62           0.14           0.25
                                      0.14           0.01           0.01
                                      0.25           0.01           0.02



     Linear momentum :   -0.0000000000   -0.0000000000   -0.0000000000

     The maximum number of steps has been reached.

     End of molecular dynamics calculation

     diffusion coefficients :
     atom     1   D =       0.00000088 cm^2/s
     atom     2   D =       0.00000044 cm^2/s

     < D > =       0.00000066 cm^2/s

     Writing all to output data dir ./work/try_4/calculation_try_4.save/

     init_run     :      2.27s CPU      2.43s WALL (       1 calls)
     electrons    :    672.42s CPU    720.95s WALL (      30 calls)
     update_pot   :      4.62s CPU      4.71s WALL (      29 calls)
     forces       :     10.91s CPU     12.65s WALL (      30 calls)
     stress       :     50.21s CPU     51.00s WALL (      30 calls)

     Called by init_run:
     wfcinit      :      1.72s CPU      1.86s WALL (       1 calls)
     potinit      :      0.14s CPU      0.15s WALL (       1 calls)
     hinit0       :      0.36s CPU      0.37s WALL (       1 calls)

     Called by electrons:
     c_bands      :    571.92s CPU    616.38s WALL (     105 calls)
     sum_band     :     86.76s CPU     90.06s WALL (     105 calls)
     v_of_rho     :      0.69s CPU      0.73s WALL (     121 calls)
     newd         :      1.72s CPU      2.21s WALL (     121 calls)
     PAW_pot      :     19.29s CPU     19.75s WALL (     150 calls)
     mix_rho      :      0.04s CPU      0.05s WALL (     105 calls)

     Called by c_bands:
     init_us_2    :     17.35s CPU     18.49s WALL (   78000 calls)
     init_us_2:cp :     17.29s CPU     18.42s WALL (   78000 calls)
     cegterg      :    545.29s CPU    588.53s WALL (   27300 calls)

     Called by *egterg:
     cdiaghg      :     36.43s CPU     38.28s WALL (  112878 calls)
     h_psi        :    402.85s CPU    422.39s WALL (  124318 calls)
     s_psi        :     17.14s CPU     19.90s WALL (  124318 calls)
     g_psi        :      1.75s CPU      1.80s WALL (   96758 calls)

     Called by h_psi:
     h_psi:calbec :     20.19s CPU     27.01s WALL (  124318 calls)
     vloc_psi     :    361.65s CPU    368.63s WALL (  124318 calls)
     add_vuspsi   :     19.40s CPU     24.37s WALL (  124318 calls)

     General routines
     calbec       :     34.94s CPU     44.67s WALL (  198158 calls)
     fft          :      0.48s CPU      0.49s WALL (    2124 calls)
     ffts         :      0.02s CPU      0.02s WALL (     105 calls)
     fftw         :    375.91s CPU    382.70s WALL ( 3542688 calls)

     Parallel routines

     PWSCF        :  12m29.94s CPU  13m21.92s WALL


   This run was terminated on:  18:24:41  30Dec2024            

=------------------------------------------------------------------------------=
   JOB DONE.
=------------------------------------------------------------------------------=
