
     Program PWSCF v.7.1 starts on 30Dec2024 at 18:24:41 

     This program is part of the open-source Quantum ESPRESSO suite
     for quantum simulation of materials; please cite
         "P. Giannozzi et al., J. Phys.:Condens. Matter 21 395502 (2009);
         "P. Giannozzi et al., J. Phys.:Condens. Matter 29 465901 (2017);
         "P. Giannozzi et al., J. Chem. Phys. 152 154105 (2020);
          URL http://www.quantum-espresso.org", 
     in publications or presentations arising from this work. More details at
     http://www.quantum-espresso.org/quote

     Parallel version (MPI), running on     1 processors

     MPI processes distributed on     1 nodes
     0 MiB available memory on the printing compute node when the environment starts

     Waiting for input...
     Reading input from standard input
Warning: card &CELL ignored
Warning: card / ignored

     Current dimensions of program PWSCF are:
     Max number of different atomic species (ntypx) = 10
     Max number of k-points (npk) =  40000
     Max angular momentum in pseudopotentials (lmaxx) =  4
     Message from routine iosys:
     BEWARE:  force calculation with tetrahedra (not recommanded)
     Message from routine iosys:
     BEWARE: stress calculation with tetrahedra (not recommanded)
     file Se.pbe-dn-kjpaw_psl.1.0.0.UPF: wavefunction(s)  4S 4P 3D renormalized
     file Fe.pbe-spn-kjpaw_psl.1.0.0.UPF: wavefunction(s)  3P 3D renormalized

     Subspace diagonalization in iterative solution of the eigenvalue problem:
     a serial algorithm will be used


     G-vector sticks info
     --------------------
     sticks:   dense  smooth     PW     G-vecs:    dense   smooth      PW
     Sum         687     687    211                12919    12919    2265

     Using Slab Decomposition



     bravais-lattice index     =            0
     lattice parameter (alat)  =       6.2248  a.u.
     unit-cell volume          =     205.9730 (a.u.)^3
     number of atoms/cell      =            2
     number of atomic types    =            2
     number of electrons       =        32.00
     number of Kohn-Sham states=           20
     kinetic-energy cutoff     =      60.0000  Ry
     charge density cutoff     =     240.0000  Ry
     scf convergence threshold =      1.0E-05
     mixing beta               =       0.7000
     number of iterations used =            8  plain     mixing
     energy convergence thresh.=      0.0E+00
     force convergence thresh. =      0.0E+00
     Exchange-correlation= SLA  PW   PBX  PBC
                           (   1   4   3   4   0   0   0)
     nstep                     =           30


     celldm(1)=   6.224762  celldm(2)=   0.000000  celldm(3)=   0.000000
     celldm(4)=   0.000000  celldm(5)=   0.000000  celldm(6)=   0.000000

     crystal axes: (cart. coord. in units of alat)
               a(1) = (   1.000000   0.000000   0.000000 )  
               a(2) = (  -0.000000   0.924104   0.000000 )  
               a(3) = (   0.000000   0.000000   0.924104 )  

     reciprocal axes: (cart. coord. in units 2 pi/alat)
               b(1) = (  1.000000  0.000000 -0.000000 )  
               b(2) = (  0.000000  1.082129  0.000000 )  
               b(3) = (  0.000000 -0.000000  1.082129 )  


     PseudoPot. # 1 for Se read from file:
     ./pseudo/Se.pbe-dn-kjpaw_psl.1.0.0.UPF
     MD5 check sum: ac240dd2bae32a30e0bf3a38df9c8785
     Pseudo is Projector augmented-wave + core cor, Zval = 16.0
     Generated using &quot;atomic&quot; code by A. Dal Corso  v.6.3
     Shape of augmentation charge: PSQ
     Using radial grid of 1211 points,  6 beta functions with: 
                l(1) =   0
                l(2) =   0
                l(3) =   1
                l(4) =   1
                l(5) =   2
                l(6) =   2
     Q(r) pseudized with 0 coefficients 


     PseudoPot. # 2 for Fe read from file:
     ./pseudo/Fe.pbe-spn-kjpaw_psl.1.0.0.UPF
     MD5 check sum: fc81f059e5c5069939230b1155715ae8
     Pseudo is Projector augmented-wave + core cor, Zval = 16.0
     Generated using &quot;atomic&quot; code by A. Dal Corso  v.6.3
     Shape of augmentation charge: PSQ
     Using radial grid of 1191 points,  6 beta functions with: 
                l(1) =   0
                l(2) =   0
                l(3) =   1
                l(4) =   1
                l(5) =   2
                l(6) =   2
     Q(r) pseudized with 0 coefficients 


     atomic species   valence    mass     pseudopotential
        Se            16.00    78.96000     Se( 1.00)
        Fe            16.00    55.84500     Fe( 1.00)

     No symmetry found



   Cartesian axes

     site n.     atom                  positions (alat units)
         1           Fe  tau(   1) = (   0.0000000   0.0000000   0.0000000  )
         2           Se  tau(   2) = (   0.4620522   0.4620522   0.4620522  )

     number of k points=   260 (tetrahedron method)

     Number of k-points >= 100: set verbosity='high' to print them.

     Dense  grid:    12919 G-vectors     FFT dimensions: (  32,  30,  30)

     Estimated max dynamical RAM per process >     179.54 MB

     Check: negative core charge=   -0.000007

     Initial potential from superposition of free atoms

     starting charge      31.9995, renormalised to      32.0000
     Starting wfcs are   19 randomized atomic wfcs +    1 random wfcs
     Checking if some PAW data can be deallocated... 

     total cpu time spent up to now is        2.9 secs

     Self-consistent Calculation

     iteration #  1     ecut=    60.00 Ry     beta= 0.70
     Davidson diagonalization with overlap
     ethr =  1.00E-02,  avg # of iterations =  3.2

     total cpu time spent up to now is        9.4 secs

     total energy              =    -730.37166057 Ry
     estimated scf accuracy    <       0.81099131 Ry

     iteration #  2     ecut=    60.00 Ry     beta= 0.70
     Davidson diagonalization with overlap
     ethr =  2.53E-03,  avg # of iterations =  5.1

     total cpu time spent up to now is       17.6 secs

     total energy              =    -729.66053303 Ry
     estimated scf accuracy    <      14.92583755 Ry

     iteration #  3     ecut=    60.00 Ry     beta= 0.70
     Davidson diagonalization with overlap
     ethr =  2.53E-03,  avg # of iterations =  4.4

     total cpu time spent up to now is       25.6 secs

     total energy              =    -730.98538067 Ry
     estimated scf accuracy    <       0.09644090 Ry

     iteration #  4     ecut=    60.00 Ry     beta= 0.70
     Davidson diagonalization with overlap
     ethr =  3.01E-04,  avg # of iterations =  2.0

     total cpu time spent up to now is       31.1 secs

     total energy              =    -730.99430476 Ry
     estimated scf accuracy    <       0.00190210 Ry

     iteration #  5     ecut=    60.00 Ry     beta= 0.70
     Davidson diagonalization with overlap
     ethr =  5.94E-06,  avg # of iterations =  5.5

     total cpu time spent up to now is       38.9 secs

     total energy              =    -730.99489920 Ry
     estimated scf accuracy    <       0.00044195 Ry

     iteration #  6     ecut=    60.00 Ry     beta= 0.70
     Davidson diagonalization with overlap
     ethr =  1.38E-06,  avg # of iterations =  2.0

     total cpu time spent up to now is       44.2 secs

     total energy              =    -730.99500612 Ry
     estimated scf accuracy    <       0.00006685 Ry

     iteration #  7     ecut=    60.00 Ry     beta= 0.70
     Davidson diagonalization with overlap
     ethr =  2.09E-07,  avg # of iterations =  1.6

     total cpu time spent up to now is       49.2 secs

     total energy              =    -730.99488289 Ry
     estimated scf accuracy    <       0.00006356 Ry

     iteration #  8     ecut=    60.00 Ry     beta= 0.70
     Davidson diagonalization with overlap
     ethr =  1.99E-07,  avg # of iterations =  1.0

     total cpu time spent up to now is       53.8 secs

     End of self-consistent calculation

     Number of k-points >= 100: set verbosity='high' to print the bands.

     the Fermi energy is    14.5838 ev

!    total energy              =    -730.99488076 Ry
     estimated scf accuracy    <       0.00000384 Ry

     convergence has been achieved in   8 iterations

     Forces acting on atoms (cartesian axes, Ry/au):

     atom    1 type  2   force =     0.01797122    0.00001599   -0.00008872
     atom    2 type  1   force =    -0.01797122   -0.00001599    0.00008872

     Total force =     0.025415     Total SCF correction =     0.000578


     Computing stress (Cartesian axis) and pressure

          total   stress  (Ry/bohr**3)                   (kbar)     P=     -146.20
  -0.00134431   0.00000078  -0.00000080         -197.75        0.11       -0.12
   0.00000078  -0.00081749  -0.00000186            0.11     -120.26       -0.27
  -0.00000080  -0.00000186  -0.00081975           -0.12       -0.27     -120.59


     Molecular Dynamics Calculation

     Starting temperature  =    10.00 K

     temperature is set once at start

     mass Se               =    78.96
     mass Fe               =    55.84
     Time step             =    20.00 a.u.,  0.9676 femto-seconds

     Entering Dynamics:    iteration =     1
                           time      =   0.0010 pico-seconds


ATOMIC_POSITIONS (angstrom)
Fe            0.0004793059        0.0001151275        0.0001905058
Se            1.5216620076        1.5219195753        1.5218662635


     kinetic energy (Ekin) =           0.00009500 Ry
     temperature           =          10.00000000 K 
     Ekin + Etot (const)   =        -730.99478576 Ry
     Ions kinetic stress =            0.05 (kbar)
                                      0.11           0.03           0.05
                                      0.03           0.01           0.01
                                      0.05           0.01           0.02



     Linear momentum :    0.0000000000   -0.0000000000    0.0000000000

     File ./work/try_5/calculation_try_5.msd.dat deleted, as requested

     Writing config-only to output data dir ./work/try_5/calculation_try_5.save/
     NEW-OLD atomic charge density approx. for the potential

     Check: negative core charge=   -0.000007

     total cpu time spent up to now is       56.5 secs

     Self-consistent Calculation

     iteration #  1     ecut=    60.00 Ry     beta= 0.70
     Davidson diagonalization with overlap
     ethr =  1.00E-06,  avg # of iterations =  3.0

     total cpu time spent up to now is       63.6 secs

     total energy              =    -730.99470554 Ry
     estimated scf accuracy    <       0.00025361 Ry

     iteration #  2     ecut=    60.00 Ry     beta= 0.70
     Davidson diagonalization with overlap
     ethr =  7.93E-07,  avg # of iterations =  4.1

     total cpu time spent up to now is       70.7 secs

     total energy              =    -730.99422406 Ry
     estimated scf accuracy    <       0.00804368 Ry

     iteration #  3     ecut=    60.00 Ry     beta= 0.70
     Davidson diagonalization with overlap
     ethr =  7.93E-07,  avg # of iterations =  4.0

     total cpu time spent up to now is       78.0 secs

     End of self-consistent calculation

     Number of k-points >= 100: set verbosity='high' to print the bands.

     the Fermi energy is    14.5804 ev

!    total energy              =    -730.99490532 Ry
     estimated scf accuracy    <       0.00000142 Ry

     convergence has been achieved in   3 iterations

     Forces acting on atoms (cartesian axes, Ry/au):

     atom    1 type  2   force =     0.01696643   -0.00015237   -0.00015554
     atom    2 type  1   force =    -0.01696643    0.00015237    0.00015554

     Total force =     0.023996     Total SCF correction =     0.003367
     SCF correction compared to forces is large: reduce conv_thr to get better values


     Computing stress (Cartesian axis) and pressure

          total   stress  (Ry/bohr**3)                   (kbar)     P=     -135.53
  -0.00127004   0.00000049  -0.00000018         -186.83        0.07       -0.03
   0.00000049  -0.00073528  -0.00000496            0.07     -108.16       -0.73
  -0.00000018  -0.00000496  -0.00075869           -0.03       -0.73     -111.61


     Entering Dynamics:    iteration =     2
                           time      =   0.0019 pico-seconds


ATOMIC_POSITIONS (angstrom)
Fe            0.0010291683        0.0002296214        0.0003803648
Se            1.5212731137        1.5218385987        1.5217319844


     kinetic energy (Ekin) =           0.00012186 Ry
     temperature           =          12.82659615 K 
     Ekin + Etot (const)   =        -730.99478346 Ry
     Ions kinetic stress =            0.06 (kbar)
                                      0.15           0.03           0.05
                                      0.03           0.01           0.01
                                      0.05           0.01           0.02



     Linear momentum :    0.0000000000   -0.0000000000    0.0000000000

     Writing config-only to output data dir ./work/try_5/calculation_try_5.save/
     NEW-OLD atomic charge density approx. for the potential

     Check: negative core charge=   -0.000007

     total cpu time spent up to now is       80.7 secs

     Self-consistent Calculation

     iteration #  1     ecut=    60.00 Ry     beta= 0.70
     Davidson diagonalization with overlap
     ethr =  1.00E-06,  avg # of iterations =  3.7

     Threshold (ethr) on eigenvalues was too large:
     Diagonalizing with lowered threshold

     Davidson diagonalization with overlap
     ethr =  2.96E-08,  avg # of iterations =  2.1

     total cpu time spent up to now is       93.8 secs

     End of self-consistent calculation

     Number of k-points >= 100: set verbosity='high' to print the bands.

     the Fermi energy is    14.5824 ev

!    total energy              =    -730.99492947 Ry
     estimated scf accuracy    <       0.00000956 Ry

     convergence has been achieved in   1 iterations

     Forces acting on atoms (cartesian axes, Ry/au):

     atom    1 type  2   force =     0.01641866   -0.00024380   -0.00028502
     atom    2 type  1   force =    -0.01641866    0.00024380    0.00028502

     Total force =     0.023226     Total SCF correction =     0.000984


     Computing stress (Cartesian axis) and pressure

          total   stress  (Ry/bohr**3)                   (kbar)     P=     -136.05
  -0.00128389   0.00000083  -0.00000015         -188.87        0.12       -0.02
   0.00000083  -0.00077693   0.00001189            0.12     -114.29        1.75
  -0.00000015   0.00001189  -0.00071376           -0.02        1.75     -105.00


     Entering Dynamics:    iteration =     3
                           time      =   0.0029 pico-seconds


ATOMIC_POSITIONS (angstrom)
Fe            0.0016473093        0.0003431014        0.0005690386
Se            1.5208359292        1.5217583392        1.5215985436


     kinetic energy (Ekin) =           0.00015123 Ry
     temperature           =          15.91843827 K 
     Ekin + Etot (const)   =        -730.99477824 Ry
     Ions kinetic stress =            0.07 (kbar)
                                      0.19           0.04           0.06
                                      0.04           0.01           0.01
                                      0.06           0.01           0.02



     Linear momentum :    0.0000000000   -0.0000000000    0.0000000000

     Writing config-only to output data dir ./work/try_5/calculation_try_5.save/
     NEW-OLD atomic charge density approx. for the potential

     Check: negative core charge=   -0.000007

     total cpu time spent up to now is       96.5 secs

     Self-consistent Calculation

     iteration #  1     ecut=    60.00 Ry     beta= 0.70
     Davidson diagonalization with overlap
     ethr =  1.00E-06,  avg # of iterations =  3.5

     total cpu time spent up to now is      103.9 secs

     total energy              =    -730.99488089 Ry
     estimated scf accuracy    <       0.00011732 Ry

     iteration #  2     ecut=    60.00 Ry     beta= 0.70
     Davidson diagonalization with overlap
     ethr =  3.67E-07,  avg # of iterations =  4.0

     total cpu time spent up to now is      110.8 secs

     total energy              =    -730.99472724 Ry
     estimated scf accuracy    <       0.00245993 Ry

     iteration #  3     ecut=    60.00 Ry     beta= 0.70
     Davidson diagonalization with overlap
     ethr =  3.67E-07,  avg # of iterations =  4.0

     total cpu time spent up to now is      117.5 secs

     total energy              =    -730.99495367 Ry
     estimated scf accuracy    <       0.00006228 Ry

     iteration #  4     ecut=    60.00 Ry     beta= 0.70
     Davidson diagonalization with overlap
     ethr =  1.95E-07,  avg # of iterations =  1.1

     total cpu time spent up to now is      122.8 secs

     End of self-consistent calculation

     Number of k-points >= 100: set verbosity='high' to print the bands.

     the Fermi energy is    14.5808 ev

!    total energy              =    -730.99496510 Ry
     estimated scf accuracy    <       0.00000019 Ry

     convergence has been achieved in   4 iterations

     Forces acting on atoms (cartesian axes, Ry/au):

     atom    1 type  2   force =     0.01737374   -0.00004900    0.00001476
     atom    2 type  1   force =    -0.01737374    0.00004900   -0.00001476

     Total force =     0.024570     Total SCF correction =     0.001635


     Computing stress (Cartesian axis) and pressure

          total   stress  (Ry/bohr**3)                   (kbar)     P=     -133.11
  -0.00125717   0.00000070  -0.00000015         -184.94        0.10       -0.02
   0.00000070  -0.00073112  -0.00000196            0.10     -107.55       -0.29
  -0.00000015  -0.00000196  -0.00072631           -0.02       -0.29     -106.84


     Entering Dynamics:    iteration =     4
                           time      =   0.0039 pico-seconds


ATOMIC_POSITIONS (angstrom)
Fe            0.0023377007        0.0004563777        0.0007577737
Se            1.5203476452        1.5216782237        1.5214650594


     kinetic energy (Ekin) =           0.00018485 Ry
     temperature           =          19.45656310 K 
     Ekin + Etot (const)   =        -730.99478025 Ry
     Ions kinetic stress =            0.09 (kbar)
                                      0.24           0.04           0.07
                                      0.04           0.01           0.01
                                      0.07           0.01           0.02



     Linear momentum :    0.0000000000   -0.0000000000    0.0000000000

     Writing config-only to output data dir ./work/try_5/calculation_try_5.save/
     NEW-OLD atomic charge density approx. for the potential

     Check: negative core charge=   -0.000007

     total cpu time spent up to now is      125.6 secs

     Self-consistent Calculation

     iteration #  1     ecut=    60.00 Ry     beta= 0.70
     Davidson diagonalization with overlap
     ethr =  1.00E-06,  avg # of iterations =  3.9

     Threshold (ethr) on eigenvalues was too large:
     Diagonalizing with lowered threshold

     Davidson diagonalization with overlap
     ethr =  2.47E-08,  avg # of iterations =  2.2

     total cpu time spent up to now is      139.0 secs

     End of self-consistent calculation

     Number of k-points >= 100: set verbosity='high' to print the bands.

     the Fermi energy is    14.5855 ev

!    total energy              =    -730.99499374 Ry
     estimated scf accuracy    <       0.00000818 Ry

     convergence has been achieved in   1 iterations

     Forces acting on atoms (cartesian axes, Ry/au):

     atom    1 type  2   force =     0.01621902   -0.00026121   -0.00033646
     atom    2 type  1   force =    -0.01621902    0.00026121    0.00033646

     Total force =     0.022945     Total SCF correction =     0.000583


     Computing stress (Cartesian axis) and pressure

          total   stress  (Ry/bohr**3)                   (kbar)     P=     -144.20
  -0.00132855   0.00000122   0.00000068         -195.44        0.18        0.10
   0.00000122  -0.00080936   0.00001055            0.18     -119.06        1.55
   0.00000068   0.00001055  -0.00080287            0.10        1.55     -118.11


     Entering Dynamics:    iteration =     5
                           time      =   0.0048 pico-seconds


ATOMIC_POSITIONS (angstrom)
Fe            0.0030955403        0.0005685677        0.0009451096
Se            1.5198116579        1.5215988766        1.5213325648


     kinetic energy (Ekin) =           0.00022204 Ry
     temperature           =          23.37137564 K 
     Ekin + Etot (const)   =        -730.99477170 Ry
     Ions kinetic stress =            0.11 (kbar)
                                      0.29           0.05           0.08
                                      0.05           0.01           0.01
                                      0.08           0.01           0.02



     Linear momentum :    0.0000000000    0.0000000000    0.0000000000

     Writing config-only to output data dir ./work/try_5/calculation_try_5.save/
     NEW-OLD atomic charge density approx. for the potential

     Check: negative core charge=   -0.000007

     total cpu time spent up to now is      141.7 secs

     Self-consistent Calculation

     iteration #  1     ecut=    60.00 Ry     beta= 0.70
     Davidson diagonalization with overlap
     ethr =  1.00E-06,  avg # of iterations =  4.0

     total cpu time spent up to now is      149.5 secs

     total energy              =    -730.99463367 Ry
     estimated scf accuracy    <       0.00051616 Ry

     iteration #  2     ecut=    60.00 Ry     beta= 0.70
     Davidson diagonalization with overlap
     ethr =  1.61E-06,  avg # of iterations =  4.1

     total cpu time spent up to now is      157.0 secs

     total energy              =    -730.99361819 Ry
     estimated scf accuracy    <       0.01637092 Ry

     iteration #  3     ecut=    60.00 Ry     beta= 0.70
     Davidson diagonalization with overlap
     ethr =  1.61E-06,  avg # of iterations =  4.1

     total cpu time spent up to now is      164.3 secs

     End of self-consistent calculation

     Number of k-points >= 100: set verbosity='high' to print the bands.

     the Fermi energy is    14.5807 ev

!    total energy              =    -730.99503347 Ry
     estimated scf accuracy    <       0.00000308 Ry

     convergence has been achieved in   3 iterations

     Forces acting on atoms (cartesian axes, Ry/au):

     atom    1 type  2   force =     0.01706685   -0.00010631   -0.00007552
     atom    2 type  1   force =    -0.01706685    0.00010631    0.00007552

     Total force =     0.024137     Total SCF correction =     0.003511
     SCF correction compared to forces is large: reduce conv_thr to get better values


     Computing stress (Cartesian axis) and pressure

          total   stress  (Ry/bohr**3)                   (kbar)     P=     -134.62
  -0.00125808   0.00000094   0.00000047         -185.07        0.14        0.07
   0.00000094  -0.00075613   0.00001789            0.14     -111.23        2.63
   0.00000047   0.00001789  -0.00073127            0.07        2.63     -107.57


     Entering Dynamics:    iteration =     6
                           time      =   0.0058 pico-seconds


ATOMIC_POSITIONS (angstrom)
Fe            0.0039243542        0.0006803156        0.0011321314
Se            1.5192254737        1.5215198421        1.5212002923


     kinetic energy (Ekin) =           0.00026259 Ry
     temperature           =          27.63935543 K 
     Ekin + Etot (const)   =        -730.99477089 Ry
     Ions kinetic stress =            0.13 (kbar)
                                      0.35           0.05           0.08
                                      0.05           0.01           0.01
                                      0.08           0.01           0.02



     Linear momentum :    0.0000000000    0.0000000000    0.0000000000

     Writing config-only to output data dir ./work/try_5/calculation_try_5.save/
     NEW-OLD atomic charge density approx. for the potential

     Check: negative core charge=   -0.000007

     total cpu time spent up to now is      167.0 secs

     Self-consistent Calculation

     iteration #  1     ecut=    60.00 Ry     beta= 0.70
     Davidson diagonalization with overlap
     ethr =  1.00E-06,  avg # of iterations =  4.7

     Threshold (ethr) on eigenvalues was too large:
     Diagonalizing with lowered threshold

     Davidson diagonalization with overlap
     ethr =  4.77E-08,  avg # of iterations =  1.6

     total cpu time spent up to now is      179.9 secs

     total energy              =    -730.99507554 Ry
     estimated scf accuracy    <       0.00001540 Ry

     iteration #  2     ecut=    60.00 Ry     beta= 0.70
     Davidson diagonalization with overlap
     ethr =  4.81E-08,  avg # of iterations =  2.0

     total cpu time spent up to now is      185.5 secs

     total energy              =    -730.99506998 Ry
     estimated scf accuracy    <       0.00003304 Ry

     iteration #  3     ecut=    60.00 Ry     beta= 0.70
     Davidson diagonalization with overlap
     ethr =  4.81E-08,  avg # of iterations =  2.2

     total cpu time spent up to now is      191.0 secs

     total energy              =    -730.99507334 Ry
     estimated scf accuracy    <       0.00002999 Ry

     iteration #  4     ecut=    60.00 Ry     beta= 0.70
     Davidson diagonalization with overlap
     ethr =  4.81E-08,  avg # of iterations =  1.6

     total cpu time spent up to now is      196.1 secs

     End of self-consistent calculation

     Number of k-points >= 100: set verbosity='high' to print the bands.

     the Fermi energy is    14.5815 ev

!    total energy              =    -730.99507992 Ry
     estimated scf accuracy    <       0.00000019 Ry

     convergence has been achieved in   4 iterations

     Forces acting on atoms (cartesian axes, Ry/au):

     atom    1 type  2   force =     0.01790540    0.00000130    0.00010386
     atom    2 type  1   force =    -0.01790540   -0.00000130   -0.00010386

     Total force =     0.025322     Total SCF correction =     0.001100


     Computing stress (Cartesian axis) and pressure

          total   stress  (Ry/bohr**3)                   (kbar)     P=     -133.57
  -0.00125400   0.00000072   0.00000042         -184.47        0.11        0.06
   0.00000072  -0.00073362  -0.00000108            0.11     -107.92       -0.16
   0.00000042  -0.00000108  -0.00073634            0.06       -0.16     -108.32


     Entering Dynamics:    iteration =     7
                           time      =   0.0068 pico-seconds


ATOMIC_POSITIONS (angstrom)
Fe            0.0048276293        0.0007920689        0.0013195852
Se            1.5185866261        1.5214408038        1.5210677144


     kinetic energy (Ekin) =           0.00030938 Ry
     temperature           =          32.56502271 K 
     Ekin + Etot (const)   =        -730.99477053 Ry
     Ions kinetic stress =            0.15 (kbar)
                                      0.42           0.05           0.09
                                      0.05           0.01           0.01
                                      0.09           0.01           0.02



     Linear momentum :    0.0000000000    0.0000000000    0.0000000000

     Writing config-only to output data dir ./work/try_5/calculation_try_5.save/
     NEW-OLD atomic charge density approx. for the potential

     Check: negative core charge=   -0.000007

     total cpu time spent up to now is      198.7 secs

     Self-consistent Calculation

     iteration #  1     ecut=    60.00 Ry     beta= 0.70
     Davidson diagonalization with overlap
     ethr =  1.00E-06,  avg # of iterations =  4.8

     Threshold (ethr) on eigenvalues was too large:
     Diagonalizing with lowered threshold

     Davidson diagonalization with overlap
     ethr =  6.93E-09,  avg # of iterations =  2.6

     total cpu time spent up to now is      213.0 secs

     End of self-consistent calculation

     Number of k-points >= 100: set verbosity='high' to print the bands.

     the Fermi energy is    14.5824 ev

!    total energy              =    -730.99512463 Ry
     estimated scf accuracy    <       0.00000229 Ry

     convergence has been achieved in   1 iterations

     Forces acting on atoms (cartesian axes, Ry/au):

     atom    1 type  2   force =     0.01615431   -0.00021897   -0.00025750
     atom    2 type  1   force =    -0.01615431    0.00021897    0.00025750

     Total force =     0.022851     Total SCF correction =     0.002335
     SCF correction compared to forces is large: reduce conv_thr to get better values


     Computing stress (Cartesian axis) and pressure

          total   stress  (Ry/bohr**3)                   (kbar)     P=     -134.60
  -0.00126242   0.00000196   0.00000076         -185.71        0.29        0.11
   0.00000196  -0.00075159   0.00000755            0.29     -110.56        1.11
   0.00000076   0.00000755  -0.00073094            0.11        1.11     -107.53


     Entering Dynamics:    iteration =     8
                           time      =   0.0077 pico-seconds


ATOMIC_POSITIONS (angstrom)
Fe            0.0057980837        0.0009029116        0.0015059681
Se            1.5179002656        1.5213624096        1.5209358938


     kinetic energy (Ekin) =           0.00035882 Ry
     temperature           =          37.76927695 K 
     Ekin + Etot (const)   =        -730.99476580 Ry
     Ions kinetic stress =            0.17 (kbar)
                                      0.49           0.06           0.10
                                      0.06           0.01           0.01
                                      0.10           0.01           0.02



     Linear momentum :   -0.0000000000    0.0000000000    0.0000000000

     Writing config-only to output data dir ./work/try_5/calculation_try_5.save/
     NEW-OLD atomic charge density approx. for the potential

     Check: negative core charge=   -0.000007

     total cpu time spent up to now is      215.6 secs

     Self-consistent Calculation

     iteration #  1     ecut=    60.00 Ry     beta= 0.70
     Davidson diagonalization with overlap
     ethr =  1.00E-06,  avg # of iterations =  5.0

     total cpu time spent up to now is      223.9 secs

     total energy              =    -730.99514427 Ry
     estimated scf accuracy    <       0.00003898 Ry

     iteration #  2     ecut=    60.00 Ry     beta= 0.70
     Davidson diagonalization with overlap
     ethr =  1.22E-07,  avg # of iterations =  4.0

     total cpu time spent up to now is      230.8 secs

     total energy              =    -730.99509210 Ry
     estimated scf accuracy    <       0.00102419 Ry

     iteration #  3     ecut=    60.00 Ry     beta= 0.70
     Davidson diagonalization with overlap
     ethr =  1.22E-07,  avg # of iterations =  4.0

     total cpu time spent up to now is      237.6 secs

     End of self-consistent calculation

     Number of k-points >= 100: set verbosity='high' to print the bands.

     the Fermi energy is    14.5785 ev

!    total energy              =    -730.99516915 Ry
     estimated scf accuracy    <       0.00000878 Ry

     convergence has been achieved in   3 iterations

     Forces acting on atoms (cartesian axes, Ry/au):

     atom    1 type  2   force =     0.01741412   -0.00006489    0.00001027
     atom    2 type  1   force =    -0.01741412    0.00006489   -0.00001027

     Total force =     0.024627     Total SCF correction =     0.003222
     SCF correction compared to forces is large: reduce conv_thr to get better values


     Computing stress (Cartesian axis) and pressure

          total   stress  (Ry/bohr**3)                   (kbar)     P=     -125.68
  -0.00120054   0.00000230   0.00000040         -176.61        0.34        0.06
   0.00000230  -0.00070763   0.00001095            0.34     -104.10        1.61
   0.00000040   0.00001095  -0.00065492            0.06        1.61      -96.34


     Entering Dynamics:    iteration =     9
                           time      =   0.0087 pico-seconds


ATOMIC_POSITIONS (angstrom)
Fe            0.0068409564        0.0010134844        0.0016923937
Se            1.5171626868        1.5212842062        1.5208040429


     kinetic energy (Ekin) =           0.00041132 Ry
     temperature           =          43.29489646 K 
     Ekin + Etot (const)   =        -730.99475783 Ry
     Ions kinetic stress =            0.20 (kbar)
                                      0.56           0.06           0.10
                                      0.06           0.01           0.01
                                      0.10           0.01           0.02



     Linear momentum :   -0.0000000000    0.0000000000    0.0000000000

     Writing config-only to output data dir ./work/try_5/calculation_try_5.save/
     NEW-OLD atomic charge density approx. for the potential

     Check: negative core charge=   -0.000007

     total cpu time spent up to now is      240.3 secs

     Self-consistent Calculation

     iteration #  1     ecut=    60.00 Ry     beta= 0.70
     Davidson diagonalization with overlap
     ethr =  1.00E-06,  avg # of iterations =  5.0

     total cpu time spent up to now is      249.1 secs

     total energy              =    -730.99506952 Ry
     estimated scf accuracy    <       0.00023177 Ry

     iteration #  2     ecut=    60.00 Ry     beta= 0.70
     Davidson diagonalization with overlap
     ethr =  7.24E-07,  avg # of iterations =  4.0

     total cpu time spent up to now is      256.3 secs

     total energy              =    -730.99456488 Ry
     estimated scf accuracy    <       0.00664165 Ry

     iteration #  3     ecut=    60.00 Ry     beta= 0.70
     Davidson diagonalization with overlap
     ethr =  7.24E-07,  avg # of iterations =  4.0

     total cpu time spent up to now is      263.2 secs

     total energy              =    -730.99522564 Ry
     estimated scf accuracy    <       0.00003112 Ry

     iteration #  4     ecut=    60.00 Ry     beta= 0.70
     Davidson diagonalization with overlap
     ethr =  9.73E-08,  avg # of iterations =  1.2

     total cpu time spent up to now is      268.0 secs

     End of self-consistent calculation

     Number of k-points >= 100: set verbosity='high' to print the bands.

     the Fermi energy is    14.5820 ev

!    total energy              =    -730.99523040 Ry
     estimated scf accuracy    <       0.00000019 Ry

     convergence has been achieved in   4 iterations

     Forces acting on atoms (cartesian axes, Ry/au):

     atom    1 type  2   force =     0.01820953    0.00001133    0.00012316
     atom    2 type  1   force =    -0.01820953   -0.00001133   -0.00012316

     Total force =     0.025753     Total SCF correction =     0.001855


     Computing stress (Cartesian axis) and pressure

          total   stress  (Ry/bohr**3)                   (kbar)     P=     -133.83
  -0.00125267   0.00000123   0.00000076         -184.27        0.18        0.11
   0.00000123  -0.00073910  -0.00000213            0.18     -108.73       -0.31
   0.00000076  -0.00000213  -0.00073747            0.11       -0.31     -108.49


     Entering Dynamics:    iteration =    10
                           time      =   0.0097 pico-seconds


ATOMIC_POSITIONS (angstrom)
Fe            0.0079595552        0.0011241044        0.0018793316
Se            1.5163715502        1.5212059695        1.5206718299


     kinetic energy (Ekin) =           0.00047133 Ry
     temperature           =          49.61115099 K 
     Ekin + Etot (const)   =        -730.99475907 Ry
     Ions kinetic stress =            0.22 (kbar)
                                      0.65           0.07           0.11
                                      0.07           0.01           0.01
                                      0.11           0.01           0.02



     Linear momentum :    0.0000000000   -0.0000000000   -0.0000000000

     Writing config-only to output data dir ./work/try_5/calculation_try_5.save/
     NEW-OLD atomic charge density approx. for the potential

     Check: negative core charge=   -0.000007

     total cpu time spent up to now is      270.7 secs

     Self-consistent Calculation

     iteration #  1     ecut=    60.00 Ry     beta= 0.70
     Davidson diagonalization with overlap
     ethr =  1.00E-06,  avg # of iterations =  5.0

     Threshold (ethr) on eigenvalues was too large:
     Diagonalizing with lowered threshold

     Davidson diagonalization with overlap
     ethr =  1.93E-08,  avg # of iterations =  2.1

     total cpu time spent up to now is      284.2 secs

     End of self-consistent calculation

     Number of k-points >= 100: set verbosity='high' to print the bands.

     the Fermi energy is    14.5781 ev

!    total energy              =    -730.99528165 Ry
     estimated scf accuracy    <       0.00000627 Ry

     convergence has been achieved in   1 iterations

     Forces acting on atoms (cartesian axes, Ry/au):

     atom    1 type  2   force =     0.01596547   -0.00019796   -0.00023463
     atom    2 type  1   force =    -0.01596547    0.00019796    0.00023463

     Total force =     0.022583     Total SCF correction =     0.002522
     SCF correction compared to forces is large: reduce conv_thr to get better values


     Computing stress (Cartesian axis) and pressure

          total   stress  (Ry/bohr**3)                   (kbar)     P=     -120.79
  -0.00116089   0.00000197   0.00000153         -170.77        0.29        0.23
   0.00000197  -0.00065479   0.00001093            0.29      -96.32        1.61
   0.00000153   0.00001093  -0.00064773            0.23        1.61      -95.28


     Entering Dynamics:    iteration =    11
                           time      =   0.0106 pico-seconds


ATOMIC_POSITIONS (angstrom)
Fe            0.0091445479        0.0012339011        0.0020652937
Se            1.5155334560        1.5211283150        1.5205403069


     kinetic energy (Ekin) =           0.00053280 Ry
     temperature           =          56.08151720 K 
     Ekin + Etot (const)   =        -730.99474885 Ry
     Ions kinetic stress =            0.25 (kbar)
                                      0.74           0.07           0.12
                                      0.07           0.01           0.01
                                      0.12           0.01           0.02



     Linear momentum :    0.0000000000   -0.0000000000   -0.0000000000

     Writing config-only to output data dir ./work/try_5/calculation_try_5.save/
     NEW-OLD atomic charge density approx. for the potential

     Check: negative core charge=   -0.000007

     total cpu time spent up to now is      286.9 secs

     Self-consistent Calculation

     iteration #  1     ecut=    60.00 Ry     beta= 0.70
     Davidson diagonalization with overlap
     ethr =  1.00E-06,  avg # of iterations =  5.0

     total cpu time spent up to now is      295.2 secs

     total energy              =    -730.99509891 Ry
     estimated scf accuracy    <       0.00034587 Ry

     iteration #  2     ecut=    60.00 Ry     beta= 0.70
     Davidson diagonalization with overlap
     ethr =  1.08E-06,  avg # of iterations =  4.1

     total cpu time spent up to now is      302.9 secs

     total energy              =    -730.99428858 Ry
     estimated scf accuracy    <       0.01131362 Ry

     iteration #  3     ecut=    60.00 Ry     beta= 0.70
     Davidson diagonalization with overlap
     ethr =  1.08E-06,  avg # of iterations =  4.0

     total cpu time spent up to now is      310.0 secs

     End of self-consistent calculation

     Number of k-points >= 100: set verbosity='high' to print the bands.

     the Fermi energy is    14.5829 ev

!    total energy              =    -730.99534796 Ry
     estimated scf accuracy    <       0.00000383 Ry

     convergence has been achieved in   3 iterations

     Forces acting on atoms (cartesian axes, Ry/au):

     atom    1 type  2   force =     0.01790311   -0.00002308    0.00006307
     atom    2 type  1   force =    -0.01790311    0.00002308   -0.00006307

     Total force =     0.025319     Total SCF correction =     0.003559
     SCF correction compared to forces is large: reduce conv_thr to get better values


     Computing stress (Cartesian axis) and pressure

          total   stress  (Ry/bohr**3)                   (kbar)     P=     -131.97
  -0.00123602   0.00000259   0.00000172         -181.82        0.38        0.25
   0.00000259  -0.00074083   0.00002059            0.38     -108.98        3.03
   0.00000172   0.00002059  -0.00071449            0.25        3.03     -105.11


     Entering Dynamics:    iteration =    12
                           time      =   0.0116 pico-seconds


ATOMIC_POSITIONS (angstrom)
Fe            0.0104039924        0.0013436018        0.0022515181
Se            1.5146427052        1.5210507284        1.5204085985


     kinetic energy (Ekin) =           0.00059756 Ry
     temperature           =          62.89809443 K 
     Ekin + Etot (const)   =        -730.99475040 Ry
     Ions kinetic stress =            0.28 (kbar)
                                      0.83           0.07           0.13
                                      0.07           0.01           0.01
                                      0.13           0.01           0.02



     Linear momentum :    0.0000000000   -0.0000000000   -0.0000000000

     Writing config-only to output data dir ./work/try_5/calculation_try_5.save/
     NEW-OLD atomic charge density approx. for the potential

     Check: negative core charge=   -0.000007

     total cpu time spent up to now is      312.6 secs

     Self-consistent Calculation

     iteration #  1     ecut=    60.00 Ry     beta= 0.70
     Davidson diagonalization with overlap
     ethr =  1.00E-06,  avg # of iterations =  5.0

     Threshold (ethr) on eigenvalues was too large:
     Diagonalizing with lowered threshold

     Davidson diagonalization with overlap
     ethr =  8.96E-08,  avg # of iterations =  1.1

     total cpu time spent up to now is      325.6 secs

     total energy              =    -730.99540108 Ry
     estimated scf accuracy    <       0.00002882 Ry

     iteration #  2     ecut=    60.00 Ry     beta= 0.70
     Davidson diagonalization with overlap
     ethr =  9.01E-08,  avg # of iterations =  3.3

     total cpu time spent up to now is      332.0 secs

     total energy              =    -730.99537395 Ry
     estimated scf accuracy    <       0.00039521 Ry

     iteration #  3     ecut=    60.00 Ry     beta= 0.70
     Davidson diagonalization with overlap
     ethr =  9.01E-08,  avg # of iterations =  3.9

     total cpu time spent up to now is      338.7 secs

     total energy              =    -730.99540933 Ry
     estimated scf accuracy    <       0.00003647 Ry

     iteration #  4     ecut=    60.00 Ry     beta= 0.70
     Davidson diagonalization with overlap
     ethr =  9.01E-08,  avg # of iterations =  1.4

     total cpu time spent up to now is      343.6 secs

     End of self-consistent calculation

     Number of k-points >= 100: set verbosity='high' to print the bands.

     the Fermi energy is    14.5820 ev

!    total energy              =    -730.99541850 Ry
     estimated scf accuracy    <       0.00000027 Ry

     convergence has been achieved in   4 iterations

     Forces acting on atoms (cartesian axes, Ry/au):

     atom    1 type  2   force =     0.01888351    0.00005148    0.00017607
     atom    2 type  1   force =    -0.01888351   -0.00005148   -0.00017607

     Total force =     0.026707     Total SCF correction =     0.001545


     Computing stress (Cartesian axis) and pressure

          total   stress  (Ry/bohr**3)                   (kbar)     P=     -132.39
  -0.00123577   0.00000136   0.00000158         -181.79        0.20        0.23
   0.00000136  -0.00073085  -0.00000092            0.20     -107.51       -0.14
   0.00000158  -0.00000092  -0.00073333            0.23       -0.14     -107.88


     Entering Dynamics:    iteration =    13
                           time      =   0.0126 pico-seconds


ATOMIC_POSITIONS (angstrom)
Fe            0.0117419658        0.0014535167        0.0024384747
Se            1.5136964144        1.5209729904        1.5202763721


     kinetic energy (Ekin) =           0.00067243 Ry
     temperature           =          70.77926716 K 
     Ekin + Etot (const)   =        -730.99474606 Ry
     Ions kinetic stress =            0.32 (kbar)
                                      0.93           0.08           0.13
                                      0.08           0.01           0.01
                                      0.13           0.01           0.02



     Linear momentum :    0.0000000000   -0.0000000000   -0.0000000000

     Writing config-only to output data dir ./work/try_5/calculation_try_5.save/
     NEW-OLD atomic charge density approx. for the potential

     Check: negative core charge=   -0.000007

     total cpu time spent up to now is      346.4 secs

     Self-consistent Calculation

     iteration #  1     ecut=    60.00 Ry     beta= 0.70
     Davidson diagonalization with overlap
     ethr =  1.00E-06,  avg # of iterations =  5.0

     Threshold (ethr) on eigenvalues was too large:
     Diagonalizing with lowered threshold

     Davidson diagonalization with overlap
     ethr =  1.66E-08,  avg # of iterations =  2.2

     total cpu time spent up to now is      361.1 secs

     End of self-consistent calculation

     Number of k-points >= 100: set verbosity='high' to print the bands.

     the Fermi energy is    14.5848 ev

!    total energy              =    -730.99548622 Ry
     estimated scf accuracy    <       0.00000550 Ry

     convergence has been achieved in   1 iterations

     Forces acting on atoms (cartesian axes, Ry/au):

     atom    1 type  2   force =     0.01614262   -0.00018838   -0.00022159
     atom    2 type  1   force =    -0.01614262    0.00018838    0.00022159

     Total force =     0.022833     Total SCF correction =     0.003458
     SCF correction compared to forces is large: reduce conv_thr to get better values


     Computing stress (Cartesian axis) and pressure

          total   stress  (Ry/bohr**3)                   (kbar)     P=     -136.42
  -0.00126158   0.00000261   0.00000168         -185.59        0.38        0.25
   0.00000261  -0.00077096   0.00000854            0.38     -113.41        1.26
   0.00000168   0.00000854  -0.00074958            0.25        1.26     -110.27


     Entering Dynamics:    iteration =    14
                           time      =   0.0135 pico-seconds


ATOMIC_POSITIONS (angstrom)
Fe            0.0131470698        0.0015626481        0.0026245098
Se            1.5127026450        1.5208958065        1.5201447975


     kinetic energy (Ekin) =           0.00074783 Ry
     temperature           =          78.71559620 K 
     Ekin + Etot (const)   =        -730.99473839 Ry
     Ions kinetic stress =            0.36 (kbar)
                                      1.04           0.08           0.14
                                      0.08           0.01           0.01
                                      0.14           0.01           0.02



     Linear momentum :    0.0000000000   -0.0000000000   -0.0000000000

     Writing config-only to output data dir ./work/try_5/calculation_try_5.save/
     NEW-OLD atomic charge density approx. for the potential

     Check: negative core charge=   -0.000007

     total cpu time spent up to now is      363.8 secs

     Self-consistent Calculation

     iteration #  1     ecut=    60.00 Ry     beta= 0.70
     Davidson diagonalization with overlap
     ethr =  1.00E-06,  avg # of iterations =  5.0

     total cpu time spent up to now is      372.9 secs

     total energy              =    -730.99539125 Ry
     estimated scf accuracy    <       0.00022056 Ry

     iteration #  2     ecut=    60.00 Ry     beta= 0.70
     Davidson diagonalization with overlap
     ethr =  6.89E-07,  avg # of iterations =  4.1

     total cpu time spent up to now is      380.6 secs

     total energy              =    -730.99498181 Ry
     estimated scf accuracy    <       0.00684936 Ry

     iteration #  3     ecut=    60.00 Ry     beta= 0.70
     Davidson diagonalization with overlap
     ethr =  6.89E-07,  avg # of iterations =  4.0

     total cpu time spent up to now is      387.9 secs

     End of self-consistent calculation

     Number of k-points >= 100: set verbosity='high' to print the bands.

     the Fermi energy is    14.5811 ev

!    total energy              =    -730.99556182 Ry
     estimated scf accuracy    <       0.00000659 Ry

     convergence has been achieved in   3 iterations

     Forces acting on atoms (cartesian axes, Ry/au):

     atom    1 type  2   force =     0.01826310   -0.00001860    0.00006872
     atom    2 type  1   force =    -0.01826310    0.00001860   -0.00006872

     Total force =     0.025828     Total SCF correction =     0.004247
     SCF correction compared to forces is large: reduce conv_thr to get better values


     Computing stress (Cartesian axis) and pressure

          total   stress  (Ry/bohr**3)                   (kbar)     P=     -129.95
  -0.00121505   0.00000298   0.00000121         -178.74        0.44        0.18
   0.00000298  -0.00074422   0.00001260            0.44     -109.48        1.85
   0.00000121   0.00001260  -0.00069090            0.18        1.85     -101.63


     Entering Dynamics:    iteration =    15
                           time      =   0.0145 pico-seconds


ATOMIC_POSITIONS (angstrom)
Fe            0.0146281227        0.0016717022        0.0028108306
Se            1.5116551602        1.5208186772        1.5200130208


     kinetic energy (Ekin) =           0.00082586 Ry
     temperature           =          86.92828811 K 
     Ekin + Etot (const)   =        -730.99473596 Ry
     Ions kinetic stress =            0.39 (kbar)
                                      1.15           0.09           0.15
                                      0.09           0.01           0.01
                                      0.15           0.01           0.02



     Linear momentum :    0.0000000000   -0.0000000000   -0.0000000000

     Writing config-only to output data dir ./work/try_5/calculation_try_5.save/
     NEW-OLD atomic charge density approx. for the potential

     Check: negative core charge=   -0.000007

     total cpu time spent up to now is      390.6 secs

     Self-consistent Calculation

     iteration #  1     ecut=    60.00 Ry     beta= 0.70
     Davidson diagonalization with overlap
     ethr =  1.00E-06,  avg # of iterations =  5.0

     total cpu time spent up to now is      399.4 secs

     total energy              =    -730.99562186 Ry
     estimated scf accuracy    <       0.00004847 Ry

     iteration #  2     ecut=    60.00 Ry     beta= 0.70
     Davidson diagonalization with overlap
     ethr =  1.51E-07,  avg # of iterations =  3.0

     total cpu time spent up to now is      406.2 secs

     total energy              =    -730.99555838 Ry
     estimated scf accuracy    <       0.00054756 Ry

     iteration #  3     ecut=    60.00 Ry     beta= 0.70
     Davidson diagonalization with overlap
     ethr =  1.51E-07,  avg # of iterations =  3.9

     total cpu time spent up to now is      413.2 secs

     total energy              =    -730.99564207 Ry
     estimated scf accuracy    <       0.00008554 Ry

     iteration #  4     ecut=    60.00 Ry     beta= 0.70
     Davidson diagonalization with overlap
     ethr =  1.51E-07,  avg # of iterations =  1.9

     total cpu time spent up to now is      418.5 secs

     End of self-consistent calculation

     Number of k-points >= 100: set verbosity='high' to print the bands.

     the Fermi energy is    14.5825 ev

!    total energy              =    -730.99564810 Ry
     estimated scf accuracy    <       0.00000027 Ry

     convergence has been achieved in   4 iterations

     Forces acting on atoms (cartesian axes, Ry/au):

     atom    1 type  2   force =     0.01933587    0.00006408    0.00020687
     atom    2 type  1   force =    -0.01933587   -0.00006408   -0.00020687

     Total force =     0.027347     Total SCF correction =     0.002262


     Computing stress (Cartesian axis) and pressure

          total   stress  (Ry/bohr**3)                   (kbar)     P=     -133.66
  -0.00123762   0.00000171   0.00000186         -182.06        0.25        0.27
   0.00000171  -0.00074563  -0.00000132            0.25     -109.69       -0.19
   0.00000186  -0.00000132  -0.00074251            0.27       -0.19     -109.23


     Entering Dynamics:    iteration =    16
                           time      =   0.0155 pico-seconds


ATOMIC_POSITIONS (angstrom)
Fe            0.0161895856        0.0017810227        0.0029980118
Se            1.5105508049        1.5207413595        1.5198806356


     kinetic energy (Ekin) =           0.00091584 Ry
     temperature           =          96.40017514 K 
     Ekin + Etot (const)   =        -730.99473226 Ry
     Ions kinetic stress =            0.44 (kbar)
                                      1.28           0.09           0.16
                                      0.09           0.01           0.01
                                      0.16           0.01           0.02



     Linear momentum :    0.0000000000   -0.0000000000    0.0000000000

     Writing config-only to output data dir ./work/try_5/calculation_try_5.save/
     NEW-OLD atomic charge density approx. for the potential

     Check: negative core charge=   -0.000007

     total cpu time spent up to now is      421.2 secs

     Self-consistent Calculation

     iteration #  1     ecut=    60.00 Ry     beta= 0.70
     Davidson diagonalization with overlap
     ethr =  1.00E-06,  avg # of iterations =  5.0

     Threshold (ethr) on eigenvalues was too large:
     Diagonalizing with lowered threshold

     Davidson diagonalization with overlap
     ethr =  2.75E-08,  avg # of iterations =  2.2

     total cpu time spent up to now is      435.3 secs

     End of self-consistent calculation

     Number of k-points >= 100: set verbosity='high' to print the bands.

     the Fermi energy is    14.5783 ev

!    total energy              =    -730.99572506 Ry
     estimated scf accuracy    <       0.00000889 Ry

     convergence has been achieved in   1 iterations

     Forces acting on atoms (cartesian axes, Ry/au):

     atom    1 type  2   force =     0.01610366   -0.00016288   -0.00020940
     atom    2 type  1   force =    -0.01610366    0.00016288    0.00020940

     Total force =     0.022777     Total SCF correction =     0.003905
     SCF correction compared to forces is large: reduce conv_thr to get better values


     Computing stress (Cartesian axis) and pressure

          total   stress  (Ry/bohr**3)                   (kbar)     P=     -114.86
  -0.00110617   0.00000289   0.00000262         -162.72        0.43        0.39
   0.00000289  -0.00062429   0.00000903            0.43      -91.84        1.33
   0.00000262   0.00000903  -0.00061193            0.39        1.33      -90.02


     Entering Dynamics:    iteration =    17
                           time      =   0.0164 pico-seconds


ATOMIC_POSITIONS (angstrom)
Fe            0.0178180171        0.0018896659        0.0031843222
Se            1.5093990855        1.5206645209        1.5197488664


     kinetic energy (Ekin) =           0.00100490 Ry
     temperature           =         105.77406172 K 
     Ekin + Etot (const)   =        -730.99472016 Ry
     Ions kinetic stress =            0.48 (kbar)
                                      1.41           0.10           0.17
                                      0.10           0.01           0.01
                                      0.17           0.01           0.02



     Linear momentum :    0.0000000000   -0.0000000000   -0.0000000000

     Writing config-only to output data dir ./work/try_5/calculation_try_5.save/
     NEW-OLD atomic charge density approx. for the potential

     Check: negative core charge=   -0.000007

     total cpu time spent up to now is      438.0 secs

     Self-consistent Calculation

     iteration #  1     ecut=    60.00 Ry     beta= 0.70
     Davidson diagonalization with overlap
     ethr =  1.00E-06,  avg # of iterations =  5.0

     total cpu time spent up to now is      446.8 secs

     total energy              =    -730.99546915 Ry
     estimated scf accuracy    <       0.00048295 Ry

     iteration #  2     ecut=    60.00 Ry     beta= 0.70
     Davidson diagonalization with overlap
     ethr =  1.51E-06,  avg # of iterations =  4.1

     total cpu time spent up to now is      454.4 secs

     total energy              =    -730.99434723 Ry
     estimated scf accuracy    <       0.01588234 Ry

     iteration #  3     ecut=    60.00 Ry     beta= 0.70
     Davidson diagonalization with overlap
     ethr =  1.51E-06,  avg # of iterations =  4.0

     total cpu time spent up to now is      462.0 secs

     End of self-consistent calculation

     Number of k-points >= 100: set verbosity='high' to print the bands.

     the Fermi energy is    14.5839 ev

!    total energy              =    -730.99582281 Ry
     estimated scf accuracy    <       0.00000478 Ry

     convergence has been achieved in   3 iterations

     Forces acting on atoms (cartesian axes, Ry/au):

     atom    1 type  2   force =     0.01904108    0.00002093    0.00012219
     atom    2 type  1   force =    -0.01904108   -0.00002093   -0.00012219

     Total force =     0.026929     Total SCF correction =     0.004228
     SCF correction compared to forces is large: reduce conv_thr to get better values


     Computing stress (Cartesian axis) and pressure

          total   stress  (Ry/bohr**3)                   (kbar)     P=     -128.43
  -0.00119784   0.00000349   0.00000227         -176.21        0.51        0.33
   0.00000349  -0.00073051   0.00001592            0.51     -107.46        2.34
   0.00000227   0.00001592  -0.00069074            0.33        2.34     -101.61


     Entering Dynamics:    iteration =    18
                           time      =   0.0174 pico-seconds


ATOMIC_POSITIONS (angstrom)
Fe            0.0195256328        0.0019983961        0.0033711407
Se            1.5081913627        1.5205876207        1.5196167377


     kinetic energy (Ekin) =           0.00109734 Ry
     temperature           =         115.50438791 K 
     Ekin + Etot (const)   =        -730.99472547 Ry
     Ions kinetic stress =            0.52 (kbar)
                                      1.54           0.10           0.17
                                      0.10           0.01           0.01
                                      0.17           0.01           0.02



     Linear momentum :    0.0000000000   -0.0000000000   -0.0000000000

     Writing config-only to output data dir ./work/try_5/calculation_try_5.save/
     NEW-OLD atomic charge density approx. for the potential

     Check: negative core charge=   -0.000007

     total cpu time spent up to now is      464.8 secs

     Self-consistent Calculation

     iteration #  1     ecut=    60.00 Ry     beta= 0.70
     Davidson diagonalization with overlap
     ethr =  1.00E-06,  avg # of iterations =  5.0

     total cpu time spent up to now is      473.9 secs

     total energy              =    -730.99590074 Ry
     estimated scf accuracy    <       0.00003454 Ry

     iteration #  2     ecut=    60.00 Ry     beta= 0.70
     Davidson diagonalization with overlap
     ethr =  1.08E-07,  avg # of iterations =  3.2

     total cpu time spent up to now is      480.6 secs

     total energy              =    -730.99587435 Ry
     estimated scf accuracy    <       0.00040649 Ry

     iteration #  3     ecut=    60.00 Ry     beta= 0.70
     Davidson diagonalization with overlap
     ethr =  1.08E-07,  avg # of iterations =  3.8

     total cpu time spent up to now is      487.4 secs

     total energy              =    -730.99591237 Ry
     estimated scf accuracy    <       0.00005534 Ry

     iteration #  4     ecut=    60.00 Ry     beta= 0.70
     Davidson diagonalization with overlap
     ethr =  1.08E-07,  avg # of iterations =  1.8

     total cpu time spent up to now is      493.1 secs

     End of self-consistent calculation

     Number of k-points >= 100: set verbosity='high' to print the bands.

     the Fermi energy is    14.5831 ev

!    total energy              =    -730.99592344 Ry
     estimated scf accuracy    <       0.00000030 Ry

     convergence has been achieved in   4 iterations

     Forces acting on atoms (cartesian axes, Ry/au):

     atom    1 type  2   force =     0.02000499    0.00008959    0.00020949
     atom    2 type  1   force =    -0.02000499   -0.00008959   -0.00020949

     Total force =     0.028293     Total SCF correction =     0.002362


     Computing stress (Cartesian axis) and pressure

          total   stress  (Ry/bohr**3)                   (kbar)     P=     -129.95
  -0.00120292   0.00000197   0.00000270         -176.96        0.29        0.40
   0.00000197  -0.00072341  -0.00000063            0.29     -106.42       -0.09
   0.00000270  -0.00000063  -0.00072385            0.40       -0.09     -106.48


     Entering Dynamics:    iteration =    19
                           time      =   0.0184 pico-seconds


ATOMIC_POSITIONS (angstrom)
Fe            0.0213164412        0.0021074989        0.0035588304
Se            1.5069248012        1.5205104570        1.5194839928


     kinetic energy (Ekin) =           0.00120508 Ry
     temperature           =         126.84478014 K 
     Ekin + Etot (const)   =        -730.99471836 Ry
     Ions kinetic stress =            0.57 (kbar)
                                      1.70           0.11           0.18
                                      0.11           0.01           0.01
                                      0.18           0.01           0.02



     Linear momentum :    0.0000000000   -0.0000000000    0.0000000000

     Writing config-only to output data dir ./work/try_5/calculation_try_5.save/
     NEW-OLD atomic charge density approx. for the potential

     Check: negative core charge=   -0.000007

     total cpu time spent up to now is      495.9 secs

     Self-consistent Calculation

     iteration #  1     ecut=    60.00 Ry     beta= 0.70
     Davidson diagonalization with overlap
     ethr =  1.00E-06,  avg # of iterations =  5.0

     Threshold (ethr) on eigenvalues was too large:
     Diagonalizing with lowered threshold

     Davidson diagonalization with overlap
     ethr =  2.15E-08,  avg # of iterations =  2.3

     total cpu time spent up to now is      510.5 secs

     End of self-consistent calculation

     Number of k-points >= 100: set verbosity='high' to print the bands.

     the Fermi energy is    14.5864 ev

!    total energy              =    -730.99602064 Ry
     estimated scf accuracy    <       0.00000706 Ry

     convergence has been achieved in   1 iterations

     Forces acting on atoms (cartesian axes, Ry/au):

     atom    1 type  2   force =     0.01666298   -0.00013060   -0.00017849
     atom    2 type  1   force =    -0.01666298    0.00013060    0.00017849

     Total force =     0.023567     Total SCF correction =     0.004005
     SCF correction compared to forces is large: reduce conv_thr to get better values


     Computing stress (Cartesian axis) and pressure

          total   stress  (Ry/bohr**3)                   (kbar)     P=     -135.27
  -0.00123585   0.00000340   0.00000306         -181.80        0.50        0.45
   0.00000340  -0.00077153   0.00000720            0.50     -113.50        1.06
   0.00000306   0.00000720  -0.00075120            0.45        1.06     -110.51


     Entering Dynamics:    iteration =    20
                           time      =   0.0194 pico-seconds


ATOMIC_POSITIONS (angstrom)
Fe            0.0231765441        0.0022160586        0.0037457778
Se            1.5056092307        1.5204336774        1.5193517730


     kinetic energy (Ekin) =           0.00131080 Ry
     temperature           =         137.97300049 K 
     Ekin + Etot (const)   =        -730.99470984 Ry
     Ions kinetic stress =            0.62 (kbar)
                                      1.85           0.11           0.19
                                      0.11           0.01           0.01
                                      0.19           0.01           0.02



     Linear momentum :    0.0000000000    0.0000000000    0.0000000000

     Writing config-only to output data dir ./work/try_5/calculation_try_5.save/
     NEW-OLD atomic charge density approx. for the potential

     Check: negative core charge=   -0.000007

     total cpu time spent up to now is      513.2 secs

     Self-consistent Calculation

     iteration #  1     ecut=    60.00 Ry     beta= 0.70
     Davidson diagonalization with overlap
     ethr =  1.00E-06,  avg # of iterations =  5.0

     total cpu time spent up to now is      522.1 secs

     total energy              =    -730.99590761 Ry
     estimated scf accuracy    <       0.00028858 Ry

     iteration #  2     ecut=    60.00 Ry     beta= 0.70
     Davidson diagonalization with overlap
     ethr =  9.02E-07,  avg # of iterations =  4.1

     total cpu time spent up to now is      529.6 secs

     total energy              =    -730.99535877 Ry
     estimated scf accuracy    <       0.00903682 Ry

     iteration #  3     ecut=    60.00 Ry     beta= 0.70
     Davidson diagonalization with overlap
     ethr =  9.02E-07,  avg # of iterations =  4.0

     total cpu time spent up to now is      536.8 secs

     End of self-consistent calculation

     Number of k-points >= 100: set verbosity='high' to print the bands.

     the Fermi energy is    14.5827 ev

!    total energy              =    -730.99613260 Ry
     estimated scf accuracy    <       0.00000585 Ry

     convergence has been achieved in   3 iterations

     Forces acting on atoms (cartesian axes, Ry/au):

     atom    1 type  2   force =     0.01956301    0.00004221    0.00010735
     atom    2 type  1   force =    -0.01956301   -0.00004221   -0.00010735

     Total force =     0.027667     Total SCF correction =     0.004975
     SCF correction compared to forces is large: reduce conv_thr to get better values


     Computing stress (Cartesian axis) and pressure

          total   stress  (Ry/bohr**3)                   (kbar)     P=     -129.85
  -0.00119638   0.00000395   0.00000237         -175.99        0.58        0.35
   0.00000395  -0.00075121   0.00001073            0.58     -110.51        1.58
   0.00000237   0.00001073  -0.00070052            0.35        1.58     -103.05


     Entering Dynamics:    iteration =    21
                           time      =   0.0203 pico-seconds


ATOMIC_POSITIONS (angstrom)
Fe            0.0251180017        0.0023247938        0.0039331717
Se            1.5042361215        1.5203567737        1.5192192374


     kinetic energy (Ekin) =           0.00141964 Ry
     temperature           =         149.42911414 K 
     Ekin + Etot (const)   =        -730.99471296 Ry
     Ions kinetic stress =            0.68 (kbar)
                                      2.00           0.11           0.20
                                      0.11           0.01           0.01
                                      0.20           0.01           0.02



     Linear momentum :    0.0000000000    0.0000000000   -0.0000000000

     Writing config-only to output data dir ./work/try_5/calculation_try_5.save/
     NEW-OLD atomic charge density approx. for the potential

     Check: negative core charge=   -0.000007

     total cpu time spent up to now is      539.6 secs

     Self-consistent Calculation

     iteration #  1     ecut=    60.00 Ry     beta= 0.70
     Davidson diagonalization with overlap
     ethr =  1.00E-06,  avg # of iterations =  5.0

     total cpu time spent up to now is      548.4 secs

     total energy              =    -730.99623430 Ry
     estimated scf accuracy    <       0.00003282 Ry

     iteration #  2     ecut=    60.00 Ry     beta= 0.70
     Davidson diagonalization with overlap
     ethr =  1.03E-07,  avg # of iterations =  2.2

     total cpu time spent up to now is      554.4 secs

     total energy              =    -730.99621877 Ry
     estimated scf accuracy    <       0.00013210 Ry

     iteration #  3     ecut=    60.00 Ry     beta= 0.70
     Davidson diagonalization with overlap
     ethr =  1.03E-07,  avg # of iterations =  3.2

     total cpu time spent up to now is      560.8 secs

     total energy              =    -730.99624579 Ry
     estimated scf accuracy    <       0.00010503 Ry

     iteration #  4     ecut=    60.00 Ry     beta= 0.70
     Davidson diagonalization with overlap
     ethr =  1.03E-07,  avg # of iterations =  2.0

     total cpu time spent up to now is      566.2 secs

     End of self-consistent calculation

     Number of k-points >= 100: set verbosity='high' to print the bands.

     the Fermi energy is    14.5836 ev

!    total energy              =    -730.99625236 Ry
     estimated scf accuracy    <       0.00000033 Ry

     convergence has been achieved in   4 iterations

     Forces acting on atoms (cartesian axes, Ry/au):

     atom    1 type  2   force =     0.02076793    0.00011227    0.00022775
     atom    2 type  1   force =    -0.02076793   -0.00011227   -0.00022775

     Total force =     0.029372     Total SCF correction =     0.002709


     Computing stress (Cartesian axis) and pressure

          total   stress  (Ry/bohr**3)                   (kbar)     P=     -133.22
  -0.00121547   0.00000234   0.00000314         -178.80        0.34        0.46
   0.00000234  -0.00075171  -0.00000161            0.34     -110.58       -0.24
   0.00000314  -0.00000161  -0.00074966            0.46       -0.24     -110.28


     Entering Dynamics:    iteration =    22
                           time      =   0.0213 pico-seconds


ATOMIC_POSITIONS (angstrom)
Fe            0.0271458248        0.0024339960        0.0041215127
Se            1.5028019298        1.5202795397        1.5190860320


     kinetic energy (Ekin) =           0.00154616 Ry
     temperature           =         162.74628086 K 
     Ekin + Etot (const)   =        -730.99470620 Ry
     Ions kinetic stress =            0.74 (kbar)
                                      2.18           0.12           0.21
                                      0.12           0.01           0.01
                                      0.21           0.01           0.02



     Linear momentum :    0.0000000000   -0.0000000000   -0.0000000000

     Writing config-only to output data dir ./work/try_5/calculation_try_5.save/
     NEW-OLD atomic charge density approx. for the potential

     Check: negative core charge=   -0.000007

     total cpu time spent up to now is      568.9 secs

     Self-consistent Calculation

     iteration #  1     ecut=    60.00 Ry     beta= 0.70
     Davidson diagonalization with overlap
     ethr =  1.00E-06,  avg # of iterations =  5.0

     Threshold (ethr) on eigenvalues was too large:
     Diagonalizing with lowered threshold

     Davidson diagonalization with overlap
     ethr =  2.31E-08,  avg # of iterations =  2.3

     total cpu time spent up to now is      583.8 secs

     End of self-consistent calculation

     Number of k-points >= 100: set verbosity='high' to print the bands.

     the Fermi energy is    14.5806 ev

!    total energy              =    -730.99636560 Ry
     estimated scf accuracy    <       0.00000734 Ry

     convergence has been achieved in   1 iterations

     Forces acting on atoms (cartesian axes, Ry/au):

     atom    1 type  2   force =     0.01675640   -0.00013145   -0.00015648
     atom    2 type  1   force =    -0.01675640    0.00013145    0.00015648

     Total force =     0.023699     Total SCF correction =     0.005207
     SCF correction compared to forces is large: reduce conv_thr to get better values


     Computing stress (Cartesian axis) and pressure

          total   stress  (Ry/bohr**3)                   (kbar)     P=     -111.62
  -0.00106301   0.00000370   0.00000415         -156.37        0.54        0.61
   0.00000370  -0.00061435   0.00000943            0.54      -90.37        1.39
   0.00000415   0.00000943  -0.00059893            0.61        1.39      -88.11


     Entering Dynamics:    iteration =    23
                           time      =   0.0223 pico-seconds


ATOMIC_POSITIONS (angstrom)
Fe            0.0292433309        0.0025426515        0.0043092029
Se            1.5013184542        1.5202026924        1.5189532868


     kinetic energy (Ekin) =           0.00166867 Ry
     temperature           =         175.64176655 K 
     Ekin + Etot (const)   =        -730.99469693 Ry
     Ions kinetic stress =            0.79 (kbar)
                                      2.36           0.12           0.21
                                      0.12           0.01           0.01
                                      0.21           0.01           0.02



     Linear momentum :    0.0000000000   -0.0000000000   -0.0000000000

     Writing config-only to output data dir ./work/try_5/calculation_try_5.save/
     NEW-OLD atomic charge density approx. for the potential

     Check: negative core charge=   -0.000007

     total cpu time spent up to now is      586.6 secs

     Self-consistent Calculation

     iteration #  1     ecut=    60.00 Ry     beta= 0.70
     Davidson diagonalization with overlap
     ethr =  1.00E-06,  avg # of iterations =  5.0

     total cpu time spent up to now is      595.7 secs

     total energy              =    -730.99629504 Ry
     estimated scf accuracy    <       0.00027920 Ry

     iteration #  2     ecut=    60.00 Ry     beta= 0.70
     Davidson diagonalization with overlap
     ethr =  8.72E-07,  avg # of iterations =  4.0

     total cpu time spent up to now is      603.3 secs

     total energy              =    -730.99561676 Ry
     estimated scf accuracy    <       0.00918107 Ry

     iteration #  3     ecut=    60.00 Ry     beta= 0.70
     Davidson diagonalization with overlap
     ethr =  8.72E-07,  avg # of iterations =  4.0

     total cpu time spent up to now is      610.7 secs

     End of self-consistent calculation

     Number of k-points >= 100: set verbosity='high' to print the bands.

     the Fermi energy is    14.5855 ev

!    total energy              =    -730.99649777 Ry
     estimated scf accuracy    <       0.00000622 Ry

     convergence has been achieved in   3 iterations

     Forces acting on atoms (cartesian axes, Ry/au):

     atom    1 type  2   force =     0.02054569    0.00006134    0.00014744
     atom    2 type  1   force =    -0.02054569   -0.00006134   -0.00014744

     Total force =     0.029057     Total SCF correction =     0.005021
     SCF correction compared to forces is large: reduce conv_thr to get better values


     Computing stress (Cartesian axis) and pressure

          total   stress  (Ry/bohr**3)                   (kbar)     P=     -126.25
  -0.00116297   0.00000453   0.00000392         -171.08        0.67        0.58
   0.00000453  -0.00072849   0.00001657            0.67     -107.16        2.44
   0.00000392   0.00001657  -0.00068325            0.58        2.44     -100.51


     Entering Dynamics:    iteration =    24
                           time      =   0.0232 pico-seconds


ATOMIC_POSITIONS (angstrom)
Fe            0.0314262782        0.0026515620        0.0044975063
Se            1.4997745498        1.5201256646        1.5188201079


     kinetic energy (Ekin) =           0.00179511 Ry
     temperature           =         188.95010453 K 
     Ekin + Etot (const)   =        -730.99470267 Ry
     Ions kinetic stress =            0.85 (kbar)
                                      2.54           0.13           0.22
                                      0.13           0.01           0.01
                                      0.22           0.01           0.02



     Linear momentum :   -0.0000000000   -0.0000000000   -0.0000000000

     Writing config-only to output data dir ./work/try_5/calculation_try_5.save/
     NEW-OLD atomic charge density approx. for the potential

     Check: negative core charge=   -0.000007

     total cpu time spent up to now is      613.8 secs

     Self-consistent Calculation

     iteration #  1     ecut=    60.00 Ry     beta= 0.70
     Davidson diagonalization with overlap
     ethr =  1.00E-06,  avg # of iterations =  5.0

     total cpu time spent up to now is      623.0 secs

     total energy              =    -730.99659627 Ry
     estimated scf accuracy    <       0.00005465 Ry

     iteration #  2     ecut=    60.00 Ry     beta= 0.70
     Davidson diagonalization with overlap
     ethr =  1.71E-07,  avg # of iterations =  3.4

     total cpu time spent up to now is      630.0 secs

     total energy              =    -730.99654172 Ry
     estimated scf accuracy    <       0.00087976 Ry

     iteration #  3     ecut=    60.00 Ry     beta= 0.70
     Davidson diagonalization with overlap
     ethr =  1.71E-07,  avg # of iterations =  3.9

     total cpu time spent up to now is      637.3 secs

     total energy              =    -730.99662428 Ry
     estimated scf accuracy    <       0.00005064 Ry

     iteration #  4     ecut=    60.00 Ry     beta= 0.70
     Davidson diagonalization with overlap
     ethr =  1.58E-07,  avg # of iterations =  1.1

     total cpu time spent up to now is      642.2 secs

     End of self-consistent calculation

     Number of k-points >= 100: set verbosity='high' to print the bands.

     the Fermi energy is    14.5848 ev

!    total energy              =    -730.99663550 Ry
     estimated scf accuracy    <       0.00000040 Ry

     convergence has been achieved in   4 iterations

     Forces acting on atoms (cartesian axes, Ry/au):

     atom    1 type  2   force =     0.02166172    0.00011922    0.00024464
     atom    2 type  1   force =    -0.02166172   -0.00011922   -0.00024464

     Total force =     0.030637     Total SCF correction =     0.002901


     Computing stress (Cartesian axis) and pressure

          total   stress  (Ry/bohr**3)                   (kbar)     P=     -128.63
  -0.00117152   0.00000275   0.00000379         -172.34        0.41        0.56
   0.00000275  -0.00072531  -0.00000071            0.41     -106.70       -0.10
   0.00000379  -0.00000071  -0.00072645            0.56       -0.10     -106.86


     Entering Dynamics:    iteration =    25
                           time      =   0.0242 pico-seconds


ATOMIC_POSITIONS (angstrom)
Fe            0.0336993079        0.0027609684        0.0046868271
Se            1.4981669340        1.5200482862        1.5186862095


     kinetic energy (Ekin) =           0.00194397 Ry
     temperature           =         204.61860720 K 
     Ekin + Etot (const)   =        -730.99469153 Ry
     Ions kinetic stress =            0.93 (kbar)
                                      2.75           0.13           0.23
                                      0.13           0.01           0.01
                                      0.23           0.01           0.02



     Linear momentum :   -0.0000000000   -0.0000000000   -0.0000000000

     Writing config-only to output data dir ./work/try_5/calculation_try_5.save/
     NEW-OLD atomic charge density approx. for the potential

     Check: negative core charge=   -0.000007

     total cpu time spent up to now is      645.0 secs

     Self-consistent Calculation

     iteration #  1     ecut=    60.00 Ry     beta= 0.70
     Davidson diagonalization with overlap
     ethr =  1.00E-06,  avg # of iterations =  5.0

     Threshold (ethr) on eigenvalues was too large:
     Diagonalizing with lowered threshold

     Davidson diagonalization with overlap
     ethr =  2.21E-08,  avg # of iterations =  2.2

     total cpu time spent up to now is      660.0 secs

     End of self-consistent calculation

     Number of k-points >= 100: set verbosity='high' to print the bands.

     the Fermi energy is    14.5878 ev

!    total energy              =    -730.99676933 Ry
     estimated scf accuracy    <       0.00000725 Ry

     convergence has been achieved in   1 iterations

     Forces acting on atoms (cartesian axes, Ry/au):

     atom    1 type  2   force =     0.01741612   -0.00025839    0.00006848
     atom    2 type  1   force =    -0.01741612    0.00025839   -0.00006848

     Total force =     0.024633     Total SCF correction =     0.005914
     SCF correction compared to forces is large: reduce conv_thr to get better values


     Computing stress (Cartesian axis) and pressure

          total   stress  (Ry/bohr**3)                   (kbar)     P=     -128.29
  -0.00116085   0.00000254   0.00000669         -170.77        0.37        0.98
   0.00000254  -0.00073856   0.00000682            0.37     -108.65        1.00
   0.00000669   0.00000682  -0.00071696            0.98        1.00     -105.47


     Entering Dynamics:    iteration =    26
                           time      =   0.0252 pico-seconds


ATOMIC_POSITIONS (angstrom)
Fe            0.0360447642        0.0028693002        0.0048764326
Se            1.4965080940        1.5199716678        1.5185521097


     kinetic energy (Ekin) =           0.00208704 Ry
     temperature           =         219.67883342 K 
     Ekin + Etot (const)   =        -730.99468228 Ry
     Ions kinetic stress =            0.99 (kbar)
                                      2.95           0.14           0.24
                                      0.14           0.01           0.01
                                      0.24           0.01           0.02



     Linear momentum :   -0.0000000000   -0.0000000000    0.0000000000

     Writing config-only to output data dir ./work/try_5/calculation_try_5.save/
     NEW-OLD atomic charge density approx. for the potential

     Check: negative core charge=   -0.000007

     total cpu time spent up to now is      662.7 secs

     Self-consistent Calculation

     iteration #  1     ecut=    60.00 Ry     beta= 0.70
     Davidson diagonalization with overlap
     ethr =  1.00E-06,  avg # of iterations =  5.0

     total cpu time spent up to now is      671.7 secs

     total energy              =    -730.99676249 Ry
     estimated scf accuracy    <       0.00019710 Ry

     iteration #  2     ecut=    60.00 Ry     beta= 0.70
     Davidson diagonalization with overlap
     ethr =  6.16E-07,  avg # of iterations =  4.1

     total cpu time spent up to now is      679.2 secs

     total energy              =    -730.99640231 Ry
     estimated scf accuracy    <       0.00617379 Ry

     iteration #  3     ecut=    60.00 Ry     beta= 0.70
     Davidson diagonalization with overlap
     ethr =  6.16E-07,  avg # of iterations =  4.0

     total cpu time spent up to now is      686.3 secs

     End of self-consistent calculation

     Number of k-points >= 100: set verbosity='high' to print the bands.

     the Fermi energy is    14.5849 ev

!    total energy              =    -730.99691977 Ry
     estimated scf accuracy    <       0.00000693 Ry

     convergence has been achieved in   3 iterations

     Forces acting on atoms (cartesian axes, Ry/au):

     atom    1 type  2   force =     0.02157528    0.00004779    0.00021877
     atom    2 type  1   force =    -0.02157528   -0.00004779   -0.00021877

     Total force =     0.030514     Total SCF correction =     0.005612
     SCF correction compared to forces is large: reduce conv_thr to get better values


     Computing stress (Cartesian axis) and pressure

          total   stress  (Ry/bohr**3)                   (kbar)     P=     -125.38
  -0.00113675   0.00000036   0.00001020         -167.22        0.05        1.50
   0.00000036  -0.00073634   0.00001009            0.05     -108.32        1.48
   0.00001020   0.00001009  -0.00068383            1.50        1.48     -100.59


     Entering Dynamics:    iteration =    27
                           time      =   0.0261 pico-seconds


ATOMIC_POSITIONS (angstrom)
Fe            0.0384799433        0.0029778308        0.0050669479
Se            1.4947857969        1.5198949088        1.5184173664


     kinetic energy (Ekin) =           0.00223489 Ry
     temperature           =         235.24100559 K 
     Ekin + Etot (const)   =        -730.99468487 Ry
     Ions kinetic stress =            1.06 (kbar)
                                      3.17           0.14           0.25
                                      0.14           0.01           0.01
                                      0.25           0.01           0.02



     Linear momentum :   -0.0000000000   -0.0000000000    0.0000000000

     Writing config-only to output data dir ./work/try_5/calculation_try_5.save/
     NEW-OLD atomic charge density approx. for the potential

     Check: negative core charge=   -0.000007

     total cpu time spent up to now is      689.0 secs

     Self-consistent Calculation

     iteration #  1     ecut=    60.00 Ry     beta= 0.70
     Davidson diagonalization with overlap
     ethr =  1.00E-06,  avg # of iterations =  5.0

     total cpu time spent up to now is      698.2 secs

     total energy              =    -730.99705110 Ry
     estimated scf accuracy    <       0.00005059 Ry

     iteration #  2     ecut=    60.00 Ry     beta= 0.70
     Davidson diagonalization with overlap
     ethr =  1.58E-07,  avg # of iterations =  3.1

     total cpu time spent up to now is      704.8 secs

     total energy              =    -730.99697784 Ry
     estimated scf accuracy    <       0.00059910 Ry

     iteration #  3     ecut=    60.00 Ry     beta= 0.70
     Davidson diagonalization with overlap
     ethr =  1.58E-07,  avg # of iterations =  3.9

     total cpu time spent up to now is      711.6 secs

     total energy              =    -730.99707498 Ry
     estimated scf accuracy    <       0.00008098 Ry

     iteration #  4     ecut=    60.00 Ry     beta= 0.70
     Davidson diagonalization with overlap
     ethr =  1.58E-07,  avg # of iterations =  1.9

     total cpu time spent up to now is      717.0 secs

     End of self-consistent calculation

     Number of k-points >= 100: set verbosity='high' to print the bands.

     the Fermi energy is    14.5868 ev

!    total energy              =    -730.99708006 Ry
     estimated scf accuracy    <       0.00000057 Ry

     convergence has been achieved in   4 iterations

     Forces acting on atoms (cartesian axes, Ry/au):

     atom    1 type  2   force =     0.02305303    0.00012077    0.00028146
     atom    2 type  1   force =    -0.02305303   -0.00012077   -0.00028146

     Total force =     0.032605     Total SCF correction =     0.003203


     Computing stress (Cartesian axis) and pressure

          total   stress  (Ry/bohr**3)                   (kbar)     P=     -130.14
  -0.00116539   0.00000257   0.00000632         -171.43        0.38        0.93
   0.00000257  -0.00074499  -0.00000146            0.38     -109.59       -0.22
   0.00000632  -0.00000146  -0.00074363            0.93       -0.22     -109.39


     Entering Dynamics:    iteration =    28
                           time      =   0.0271 pico-seconds


ATOMIC_POSITIONS (angstrom)
Fe            0.0410109907        0.0030868635        0.0052586337
Se            1.4929956964        1.5198177947        1.5182817954


     kinetic energy (Ekin) =           0.00241050 Ry
     temperature           =         253.72488527 K 
     Ekin + Etot (const)   =        -730.99466956 Ry
     Ions kinetic stress =            1.15 (kbar)
                                      3.42           0.15           0.26
                                      0.15           0.01           0.01
                                      0.26           0.01           0.02



     Linear momentum :    0.0000000000   -0.0000000000   -0.0000000000

     Writing config-only to output data dir ./work/try_5/calculation_try_5.save/
     NEW-OLD atomic charge density approx. for the potential

     Check: negative core charge=   -0.000007

     total cpu time spent up to now is      719.7 secs

     Self-consistent Calculation

     iteration #  1     ecut=    60.00 Ry     beta= 0.70
     Davidson diagonalization with overlap
     ethr =  1.00E-06,  avg # of iterations =  5.0

     Threshold (ethr) on eigenvalues was too large:
     Diagonalizing with lowered threshold

     Davidson diagonalization with overlap
     ethr =  3.18E-08,  avg # of iterations =  2.1

     total cpu time spent up to now is      734.7 secs

     total energy              =    -730.99723106 Ry
     estimated scf accuracy    <       0.00001008 Ry

     iteration #  2     ecut=    60.00 Ry     beta= 0.70
     Davidson diagonalization with overlap
     ethr =  3.15E-08,  avg # of iterations =  3.2

     total cpu time spent up to now is      741.4 secs

     total energy              =    -730.99723241 Ry
     estimated scf accuracy    <       0.00013061 Ry

     iteration #  3     ecut=    60.00 Ry     beta= 0.70
     Davidson diagonalization with overlap
     ethr =  3.15E-08,  avg # of iterations =  3.7

     total cpu time spent up to now is      748.6 secs

     End of self-consistent calculation

     Number of k-points >= 100: set verbosity='high' to print the bands.

     the Fermi energy is    14.5832 ev

!    total energy              =    -730.99723339 Ry
     estimated scf accuracy    <       0.00000979 Ry

     convergence has been achieved in   3 iterations

     Forces acting on atoms (cartesian axes, Ry/au):

     atom    1 type  2   force =     0.02364285    0.00013814    0.00025852
     atom    2 type  1   force =    -0.02364285   -0.00013814   -0.00025852

     Total force =     0.033439     Total SCF correction =     0.003013


     Computing stress (Cartesian axis) and pressure

          total   stress  (Ry/bohr**3)                   (kbar)     P=     -121.23
  -0.00109609   0.00000226   0.00000692         -161.24        0.33        1.02
   0.00000226  -0.00067573  -0.00000569            0.33      -99.40       -0.84
   0.00000692  -0.00000569  -0.00070057            1.02       -0.84     -103.06


     Entering Dynamics:    iteration =    29
                           time      =   0.0281 pico-seconds


ATOMIC_POSITIONS (angstrom)
Fe            0.0436403592        0.0031964708        0.0054513945
Se            1.4911360575        1.5197402742        1.5181454639


     kinetic energy (Ekin) =           0.00260141 Ry
     temperature           =         273.82006903 K 
     Ekin + Etot (const)   =        -730.99463198 Ry
     Ions kinetic stress =            1.24 (kbar)
                                      3.69           0.16           0.27
                                      0.16           0.01           0.01
                                      0.27           0.01           0.02



     Linear momentum :   -0.0000000000    0.0000000000   -0.0000000000

     Writing config-only to output data dir ./work/try_5/calculation_try_5.save/
     NEW-OLD atomic charge density approx. for the potential

     Check: negative core charge=   -0.000007

     total cpu time spent up to now is      751.3 secs

     Self-consistent Calculation

     iteration #  1     ecut=    60.00 Ry     beta= 0.70
     Davidson diagonalization with overlap
     ethr =  1.00E-06,  avg # of iterations =  5.0

     total cpu time spent up to now is      760.9 secs

     total energy              =    -730.99697186 Ry
     estimated scf accuracy    <       0.00059921 Ry

     iteration #  2     ecut=    60.00 Ry     beta= 0.70
     Davidson diagonalization with overlap
     ethr =  1.87E-06,  avg # of iterations =  4.1

     total cpu time spent up to now is      768.5 secs

     total energy              =    -730.99553026 Ry
     estimated scf accuracy    <       0.01966707 Ry

     iteration #  3     ecut=    60.00 Ry     beta= 0.70
     Davidson diagonalization with overlap
     ethr =  1.87E-06,  avg # of iterations =  4.1

     total cpu time spent up to now is      775.9 secs

     End of self-consistent calculation

     Number of k-points >= 100: set verbosity='high' to print the bands.

     the Fermi energy is    14.5900 ev

!    total energy              =    -730.99740950 Ry
     estimated scf accuracy    <       0.00000847 Ry

     convergence has been achieved in   3 iterations

     Forces acting on atoms (cartesian axes, Ry/au):

     atom    1 type  2   force =     0.02413997    0.00014858    0.00028201
     atom    2 type  1   force =    -0.02413997   -0.00014858   -0.00028201

     Total force =     0.034142     Total SCF correction =     0.004787
     SCF correction compared to forces is large: reduce conv_thr to get better values


     Computing stress (Cartesian axis) and pressure

          total   stress  (Ry/bohr**3)                   (kbar)     P=     -133.11
  -0.00116911   0.00000184   0.00000785         -171.98        0.27        1.16
   0.00000184  -0.00074176  -0.00000990            0.27     -109.12       -1.46
   0.00000785  -0.00000990  -0.00080368            1.16       -1.46     -118.23


     Entering Dynamics:    iteration =    30
                           time      =   0.0290 pico-seconds


ATOMIC_POSITIONS (angstrom)
Fe            0.0463701160        0.0033066959        0.0056453281
Se            1.4892054183        1.5196623167        1.5180083031


     kinetic energy (Ekin) =           0.00280434 Ry
     temperature           =         295.18007663 K 
     Ekin + Etot (const)   =        -730.99460516 Ry
     Ions kinetic stress =            1.34 (kbar)
                                      3.98           0.16           0.29
                                      0.16           0.01           0.01
                                      0.29           0.01           0.02



     Linear momentum :   -0.0000000000    0.0000000000    0.0000000000

     The maximum number of steps has been reached.

     End of molecular dynamics calculation

     diffusion coefficients :
     atom     1   D =       0.00000126 cm^2/s
     atom     2   D =       0.00000063 cm^2/s

     < D > =       0.00000094 cm^2/s

     Writing all to output data dir ./work/try_5/calculation_try_5.save/

     init_run     :      2.31s CPU      2.67s WALL (       1 calls)
     electrons    :    638.56s CPU    694.25s WALL (      30 calls)
     update_pot   :      4.65s CPU      4.79s WALL (      29 calls)
     forces       :     11.08s CPU     13.54s WALL (      30 calls)
     stress       :     50.96s CPU     52.43s WALL (      30 calls)

     Called by init_run:
     wfcinit      :      1.73s CPU      2.06s WALL (       1 calls)
     potinit      :      0.15s CPU      0.15s WALL (       1 calls)
     hinit0       :      0.37s CPU      0.39s WALL (       1 calls)

     Called by electrons:
     c_bands      :    544.58s CPU    595.66s WALL (      98 calls)
     sum_band     :     80.97s CPU     84.87s WALL (      98 calls)
     v_of_rho     :      0.66s CPU      0.70s WALL (     116 calls)
     newd         :      1.67s CPU      2.15s WALL (     116 calls)
     PAW_pot      :     18.68s CPU     19.13s WALL (     145 calls)
     mix_rho      :      0.04s CPU      0.05s WALL (      98 calls)

     Called by c_bands:
     init_us_2    :     16.72s CPU     18.58s WALL (   74360 calls)
     init_us_2:cp :     16.67s CPU     18.51s WALL (   74360 calls)
     cegterg      :    519.37s CPU    569.15s WALL (   25480 calls)

     Called by *egterg:
     cdiaghg      :     34.43s CPU     36.45s WALL (  105934 calls)
     h_psi        :    382.89s CPU    402.44s WALL (  116854 calls)
     s_psi        :     16.41s CPU     19.14s WALL (  116854 calls)
     g_psi        :      1.70s CPU      1.75s WALL (   91114 calls)

     Called by h_psi:
     h_psi:calbec :     18.98s CPU     26.09s WALL (  116854 calls)
     vloc_psi     :    343.87s CPU    350.18s WALL (  116854 calls)
     add_vuspsi   :     18.44s CPU     23.69s WALL (  116854 calls)

     General routines
     calbec       :     33.54s CPU     45.29s WALL (  188874 calls)
     fft          :      0.46s CPU      0.47s WALL (    2067 calls)
     ffts         :      0.02s CPU      0.02s WALL (      98 calls)
     fftw         :    356.78s CPU    362.80s WALL ( 3351648 calls)

     Parallel routines

     PWSCF        :  11m57.13s CPU  12m58.22s WALL


   This run was terminated on:  18:37:39  30Dec2024            

=------------------------------------------------------------------------------=
   JOB DONE.
=------------------------------------------------------------------------------=
