
     Program PWSCF v.7.1 starts on 30Dec2024 at 17:16: 7 

     This program is part of the open-source Quantum ESPRESSO suite
     for quantum simulation of materials; please cite
         "P. Giannozzi et al., J. Phys.:Condens. Matter 21 395502 (2009);
         "P. Giannozzi et al., J. Phys.:Condens. Matter 29 465901 (2017);
         "P. Giannozzi et al., J. Chem. Phys. 152 154105 (2020);
          URL http://www.quantum-espresso.org", 
     in publications or presentations arising from this work. More details at
     http://www.quantum-espresso.org/quote

     Parallel version (MPI), running on     1 processors

     MPI processes distributed on     1 nodes
     0 MiB available memory on the printing compute node when the environment starts

     Waiting for input...
     Reading input from standard input
Warning: card &CELL ignored
Warning: card / ignored

     Current dimensions of program PWSCF are:
     Max number of different atomic species (ntypx) = 10
     Max number of k-points (npk) =  40000
     Max angular momentum in pseudopotentials (lmaxx) =  4
     Message from routine iosys:
     BEWARE:  force calculation with tetrahedra (not recommanded)
     Message from routine iosys:
     BEWARE: stress calculation with tetrahedra (not recommanded)
     file Se.pbe-dn-kjpaw_psl.1.0.0.UPF: wavefunction(s)  4S 4P 3D renormalized
     file Fe.pbe-spn-kjpaw_psl.1.0.0.UPF: wavefunction(s)  3P 3D renormalized

     Subspace diagonalization in iterative solution of the eigenvalue problem:
     a serial algorithm will be used


     G-vector sticks info
     --------------------
     sticks:   dense  smooth     PW     G-vecs:    dense   smooth      PW
     Sum         633     633    193                11981    11981    2103

     Using Slab Decomposition



     bravais-lattice index     =            0
     lattice parameter (alat)  =       5.7523  a.u.
     unit-cell volume          =     190.3406 (a.u.)^3
     number of atoms/cell      =            2
     number of atomic types    =            2
     number of electrons       =        32.00
     number of Kohn-Sham states=           20
     kinetic-energy cutoff     =      60.0000  Ry
     charge density cutoff     =     240.0000  Ry
     scf convergence threshold =      1.0E-05
     mixing beta               =       0.7000
     number of iterations used =            8  plain     mixing
     energy convergence thresh.=      0.0E+00
     force convergence thresh. =      0.0E+00
     Exchange-correlation= SLA  PW   PBX  PBC
                           (   1   4   3   4   0   0   0)
     nstep                     =           30


     celldm(1)=   5.752330  celldm(2)=   0.000000  celldm(3)=   0.000000
     celldm(4)=   0.000000  celldm(5)=   0.000000  celldm(6)=   0.000000

     crystal axes: (cart. coord. in units of alat)
               a(1) = (   1.000000   0.000000   0.000000 )  
               a(2) = (  -0.000000   1.000000   0.000000 )  
               a(3) = (   0.000000   0.000000   1.000000 )  

     reciprocal axes: (cart. coord. in units 2 pi/alat)
               b(1) = (  1.000000  0.000000 -0.000000 )  
               b(2) = (  0.000000  1.000000  0.000000 )  
               b(3) = (  0.000000 -0.000000  1.000000 )  


     PseudoPot. # 1 for Se read from file:
     ./pseudo/Se.pbe-dn-kjpaw_psl.1.0.0.UPF
     MD5 check sum: ac240dd2bae32a30e0bf3a38df9c8785
     Pseudo is Projector augmented-wave + core cor, Zval = 16.0
     Generated using &quot;atomic&quot; code by A. Dal Corso  v.6.3
     Shape of augmentation charge: PSQ
     Using radial grid of 1211 points,  6 beta functions with: 
                l(1) =   0
                l(2) =   0
                l(3) =   1
                l(4) =   1
                l(5) =   2
                l(6) =   2
     Q(r) pseudized with 0 coefficients 


     PseudoPot. # 2 for Fe read from file:
     ./pseudo/Fe.pbe-spn-kjpaw_psl.1.0.0.UPF
     MD5 check sum: fc81f059e5c5069939230b1155715ae8
     Pseudo is Projector augmented-wave + core cor, Zval = 16.0
     Generated using &quot;atomic&quot; code by A. Dal Corso  v.6.3
     Shape of augmentation charge: PSQ
     Using radial grid of 1191 points,  6 beta functions with: 
                l(1) =   0
                l(2) =   0
                l(3) =   1
                l(4) =   1
                l(5) =   2
                l(6) =   2
     Q(r) pseudized with 0 coefficients 


     atomic species   valence    mass     pseudopotential
        Se            16.00    78.96000     Se( 1.00)
        Fe            16.00    55.84500     Fe( 1.00)

     No symmetry found



   Cartesian axes

     site n.     atom                  positions (alat units)
         1           Fe  tau(   1) = (   0.0000000   0.0000000   0.0000000  )
         2           Se  tau(   2) = (   0.5000000   0.5000000   0.5000000  )

     number of k points=   260 (tetrahedron method)

     Number of k-points >= 100: set verbosity='high' to print them.

     Dense  grid:    11981 G-vectors     FFT dimensions: (  30,  30,  30)

     Estimated max dynamical RAM per process >     166.25 MB

     Check: negative core charge=   -0.000008

     Initial potential from superposition of free atoms

     starting charge      31.9995, renormalised to      32.0000
     Starting wfcs are   19 randomized atomic wfcs +    1 random wfcs
     Checking if some PAW data can be deallocated... 

     total cpu time spent up to now is        2.7 secs

     Self-consistent Calculation

     iteration #  1     ecut=    60.00 Ry     beta= 0.70
     Davidson diagonalization with overlap
     ethr =  1.00E-02,  avg # of iterations =  3.3

     total cpu time spent up to now is        9.7 secs

     total energy              =    -730.43109547 Ry
     estimated scf accuracy    <       0.74636305 Ry

     iteration #  2     ecut=    60.00 Ry     beta= 0.70
     Davidson diagonalization with overlap
     ethr =  2.33E-03,  avg # of iterations =  4.9

     total cpu time spent up to now is       18.4 secs

     total energy              =    -729.82056045 Ry
     estimated scf accuracy    <      12.78466034 Ry

     iteration #  3     ecut=    60.00 Ry     beta= 0.70
     Davidson diagonalization with overlap
     ethr =  2.33E-03,  avg # of iterations =  4.3

     total cpu time spent up to now is       26.8 secs

     total energy              =    -730.99809461 Ry
     estimated scf accuracy    <       0.08523152 Ry

     iteration #  4     ecut=    60.00 Ry     beta= 0.70
     Davidson diagonalization with overlap
     ethr =  2.66E-04,  avg # of iterations =  2.1

     total cpu time spent up to now is       32.7 secs

     total energy              =    -731.00499220 Ry
     estimated scf accuracy    <       0.00206386 Ry

     iteration #  5     ecut=    60.00 Ry     beta= 0.70
     Davidson diagonalization with overlap
     ethr =  6.45E-06,  avg # of iterations =  4.5

     total cpu time spent up to now is       40.5 secs

     total energy              =    -731.00554560 Ry
     estimated scf accuracy    <       0.00017036 Ry

     iteration #  6     ecut=    60.00 Ry     beta= 0.70
     Davidson diagonalization with overlap
     ethr =  5.32E-07,  avg # of iterations =  2.1

     total cpu time spent up to now is       46.5 secs

     total energy              =    -731.00558474 Ry
     estimated scf accuracy    <       0.00001661 Ry

     iteration #  7     ecut=    60.00 Ry     beta= 0.70
     Davidson diagonalization with overlap
     ethr =  5.19E-08,  avg # of iterations =  2.3

     total cpu time spent up to now is       52.6 secs

     total energy              =    -731.00558564 Ry
     estimated scf accuracy    <       0.00001928 Ry

     iteration #  8     ecut=    60.00 Ry     beta= 0.70
     Davidson diagonalization with overlap
     ethr =  5.19E-08,  avg # of iterations =  1.3

     total cpu time spent up to now is       58.2 secs

     End of self-consistent calculation

     Number of k-points >= 100: set verbosity='high' to print the bands.

     the Fermi energy is    16.1839 ev

!    total energy              =    -731.00558266 Ry
     estimated scf accuracy    <       0.00000083 Ry

     convergence has been achieved in   8 iterations

     Forces acting on atoms (cartesian axes, Ry/au):

     atom    1 type  2   force =     0.00036983    0.00004135   -0.00010416
     atom    2 type  1   force =    -0.00036983   -0.00004135    0.00010416

     Total force =     0.000547     Total SCF correction =     0.000723
     SCF correction compared to forces is large: reduce conv_thr to get better values


     Computing stress (Cartesian axis) and pressure

          total   stress  (Ry/bohr**3)                   (kbar)     P=      -58.48
  -0.00040579   0.00000718  -0.00000578          -59.69        1.06       -0.85
   0.00000718  -0.00039435  -0.00000023            1.06      -58.01       -0.03
  -0.00000578  -0.00000023  -0.00039241           -0.85       -0.03      -57.73


     Molecular Dynamics Calculation

     Starting temperature  =    10.00 K

     temperature is set once at start

     mass Se               =    78.96
     mass Fe               =    55.84
     Time step             =    20.00 a.u.,  0.9676 femto-seconds

     Entering Dynamics:    iteration =     1
                           time      =   0.0010 pico-seconds


ATOMIC_POSITIONS (angstrom)
Fe            0.0004427074        0.0001151802        0.0001904737
Se            1.5216878922        1.5219195380        1.5218662862


     kinetic energy (Ekin) =           0.00009500 Ry
     temperature           =          10.00000000 K 
     Ekin + Etot (const)   =        -731.00548766 Ry
     Ions kinetic stress =            0.05 (kbar)
                                      0.12           0.03           0.05
                                      0.03           0.01           0.01
                                      0.05           0.01           0.02



     Linear momentum :   -0.0000000000    0.0000000000    0.0000000000

     File ./work/try_0/calculation_try_0.msd.dat deleted, as requested

     Writing config-only to output data dir ./work/try_0/calculation_try_0.save/
     NEW-OLD atomic charge density approx. for the potential

     Check: negative core charge=   -0.000008

     total cpu time spent up to now is       60.7 secs

     Self-consistent Calculation

     iteration #  1     ecut=    60.00 Ry     beta= 0.70
     Davidson diagonalization with overlap
     ethr =  1.00E-06,  avg # of iterations =  3.0

     Threshold (ethr) on eigenvalues was too large:
     Diagonalizing with lowered threshold

     Davidson diagonalization with overlap
     ethr =  2.24E-08,  avg # of iterations =  2.2

     total cpu time spent up to now is       74.9 secs

     End of self-consistent calculation

     Number of k-points >= 100: set verbosity='high' to print the bands.

     the Fermi energy is    16.1842 ev

!    total energy              =    -731.00557949 Ry
     estimated scf accuracy    <       0.00000721 Ry

     convergence has been achieved in   1 iterations

     Forces acting on atoms (cartesian axes, Ry/au):

     atom    1 type  2   force =    -0.00123375   -0.00033799   -0.00056160
     atom    2 type  1   force =     0.00123375    0.00033799    0.00056160

     Total force =     0.001976     Total SCF correction =     0.000647
     SCF correction compared to forces is large: reduce conv_thr to get better values


     Computing stress (Cartesian axis) and pressure

          total   stress  (Ry/bohr**3)                   (kbar)     P=      -60.73
  -0.00037932  -0.00000447   0.00000275          -55.80       -0.66        0.40
  -0.00000447  -0.00042571   0.00001192           -0.66      -62.62        1.75
   0.00000275   0.00001192  -0.00043355            0.40        1.75      -63.78


     Entering Dynamics:    iteration =     2
                           time      =   0.0019 pico-seconds


ATOMIC_POSITIONS (angstrom)
Fe            0.0008802840        0.0002289549        0.0003786120
Se            1.5213784131        1.5218390701        1.5217332241


     kinetic energy (Ekin) =           0.00009413 Ry
     temperature           =           9.90804454 K 
     Ekin + Etot (const)   =        -731.00548536 Ry
     Ions kinetic stress =            0.05 (kbar)
                                      0.12           0.03           0.05
                                      0.03           0.01           0.01
                                      0.05           0.01           0.02



     Linear momentum :    0.0000000000    0.0000000000    0.0000000000

     Writing config-only to output data dir ./work/try_0/calculation_try_0.save/
     NEW-OLD atomic charge density approx. for the potential

     Check: negative core charge=   -0.000008

     total cpu time spent up to now is       77.3 secs

     Self-consistent Calculation

     iteration #  1     ecut=    60.00 Ry     beta= 0.70
     Davidson diagonalization with overlap
     ethr =  1.00E-06,  avg # of iterations =  3.0

     total cpu time spent up to now is       84.9 secs

     total energy              =    -731.00556666 Ry
     estimated scf accuracy    <       0.00003502 Ry

     iteration #  2     ecut=    60.00 Ry     beta= 0.70
     Davidson diagonalization with overlap
     ethr =  1.09E-07,  avg # of iterations =  2.0

     total cpu time spent up to now is       91.2 secs

     total energy              =    -731.00557524 Ry
     estimated scf accuracy    <       0.00004823 Ry

     iteration #  3     ecut=    60.00 Ry     beta= 0.70
     Davidson diagonalization with overlap
     ethr =  1.09E-07,  avg # of iterations =  1.0

     total cpu time spent up to now is       96.6 secs

     End of self-consistent calculation

     Number of k-points >= 100: set verbosity='high' to print the bands.

     the Fermi energy is    16.1849 ev

!    total energy              =    -731.00558342 Ry
     estimated scf accuracy    <       0.00000080 Ry

     convergence has been achieved in   3 iterations

     Forces acting on atoms (cartesian axes, Ry/au):

     atom    1 type  2   force =    -0.00020426   -0.00006032   -0.00013953
     atom    2 type  1   force =     0.00020426    0.00006032    0.00013953

     Total force =     0.000360     Total SCF correction =     0.002077
     SCF correction compared to forces is large: reduce conv_thr to get better values


     Computing stress (Cartesian axis) and pressure

          total   stress  (Ry/bohr**3)                   (kbar)     P=      -62.09
  -0.00041419   0.00000387  -0.00000220          -60.93        0.57       -0.32
   0.00000387  -0.00043237   0.00000597            0.57      -63.60        0.88
  -0.00000220   0.00000597  -0.00041970           -0.32        0.88      -61.74


     Entering Dynamics:    iteration =     3
                           time      =   0.0029 pico-seconds


ATOMIC_POSITIONS (angstrom)
Fe            0.0013170112        0.0003424787        0.0005661700
Se            1.5210695348        1.5217587796        1.5216005724


     kinetic energy (Ekin) =           0.00009283 Ry
     temperature           =           9.77077717 K 
     Ekin + Etot (const)   =        -731.00549059 Ry
     Ions kinetic stress =            0.05 (kbar)
                                      0.11           0.03           0.05
                                      0.03           0.01           0.01
                                      0.05           0.01           0.02



     Linear momentum :   -0.0000000000   -0.0000000000    0.0000000000

     Writing config-only to output data dir ./work/try_0/calculation_try_0.save/
     NEW-OLD atomic charge density approx. for the potential

     Check: negative core charge=   -0.000008

     total cpu time spent up to now is       99.0 secs

     Self-consistent Calculation

     iteration #  1     ecut=    60.00 Ry     beta= 0.70
     Davidson diagonalization with overlap
     ethr =  1.00E-06,  avg # of iterations =  3.0

     Threshold (ethr) on eigenvalues was too large:
     Diagonalizing with lowered threshold

     Davidson diagonalization with overlap
     ethr =  3.74E-08,  avg # of iterations =  2.1

     total cpu time spent up to now is      112.4 secs

     total energy              =    -731.00557394 Ry
     estimated scf accuracy    <       0.00001227 Ry

     iteration #  2     ecut=    60.00 Ry     beta= 0.70
     Davidson diagonalization with overlap
     ethr =  3.83E-08,  avg # of iterations =  3.5

     total cpu time spent up to now is      119.9 secs

     total energy              =    -731.00557528 Ry
     estimated scf accuracy    <       0.00017056 Ry

     iteration #  3     ecut=    60.00 Ry     beta= 0.70
     Davidson diagonalization with overlap
     ethr =  3.83E-08,  avg # of iterations =  4.0

     total cpu time spent up to now is      127.5 secs

     total energy              =    -731.00557913 Ry
     estimated scf accuracy    <       0.00001393 Ry

     iteration #  4     ecut=    60.00 Ry     beta= 0.70
     Davidson diagonalization with overlap
     ethr =  3.83E-08,  avg # of iterations =  1.1

     total cpu time spent up to now is      133.0 secs

     End of self-consistent calculation

     Number of k-points >= 100: set verbosity='high' to print the bands.

     the Fermi energy is    16.1844 ev

!    total energy              =    -731.00558367 Ry
     estimated scf accuracy    <       0.00000037 Ry

     convergence has been achieved in   4 iterations

     Forces acting on atoms (cartesian axes, Ry/au):

     atom    1 type  2   force =     0.00013942    0.00004824    0.00005554
     atom    2 type  1   force =    -0.00013942   -0.00004824   -0.00005554

     Total force =     0.000223     Total SCF correction =     0.000866
     SCF correction compared to forces is large: reduce conv_thr to get better values


     Computing stress (Cartesian axis) and pressure

          total   stress  (Ry/bohr**3)                   (kbar)     P=      -60.23
  -0.00041324   0.00000786  -0.00000108          -60.79        1.16       -0.16
   0.00000786  -0.00040500   0.00000405            1.16      -59.58        0.60
  -0.00000108   0.00000405  -0.00041000           -0.16        0.60      -60.31


     Entering Dynamics:    iteration =     4
                           time      =   0.0039 pico-seconds


ATOMIC_POSITIONS (angstrom)
Fe            0.0017543183        0.0004562032        0.0007539590
Se            1.5207602464        1.5216783472        1.5214677574


     kinetic energy (Ekin) =           0.00009275 Ry
     temperature           =           9.76305470 K 
     Ekin + Etot (const)   =        -731.00549091 Ry
     Ions kinetic stress =            0.05 (kbar)
                                      0.11           0.03           0.05
                                      0.03           0.01           0.01
                                      0.05           0.01           0.02



     Linear momentum :   -0.0000000000   -0.0000000000   -0.0000000000

     Writing config-only to output data dir ./work/try_0/calculation_try_0.save/
     NEW-OLD atomic charge density approx. for the potential

     Check: negative core charge=   -0.000008

     total cpu time spent up to now is      135.5 secs

     Self-consistent Calculation

     iteration #  1     ecut=    60.00 Ry     beta= 0.70
     Davidson diagonalization with overlap
     ethr =  1.00E-06,  avg # of iterations =  3.0

     Threshold (ethr) on eigenvalues was too large:
     Diagonalizing with lowered threshold

     Davidson diagonalization with overlap
     ethr =  1.74E-08,  avg # of iterations =  2.4

     total cpu time spent up to now is      149.4 secs

     End of self-consistent calculation

     Number of k-points >= 100: set verbosity='high' to print the bands.

     the Fermi energy is    16.1860 ev

!    total energy              =    -731.00558140 Ry
     estimated scf accuracy    <       0.00000565 Ry

     convergence has been achieved in   1 iterations

     Forces acting on atoms (cartesian axes, Ry/au):

     atom    1 type  2   force =    -0.00100301   -0.00028347   -0.00041668
     atom    2 type  1   force =     0.00100301    0.00028347    0.00041668

     Total force =     0.001587     Total SCF correction =     0.000588
     SCF correction compared to forces is large: reduce conv_thr to get better values


     Computing stress (Cartesian axis) and pressure

          total   stress  (Ry/bohr**3)                   (kbar)     P=      -64.39
  -0.00041970  -0.00000823  -0.00000401          -61.74       -1.21       -0.59
  -0.00000823  -0.00046242   0.00000361           -1.21      -68.02        0.53
  -0.00000401   0.00000361  -0.00043109           -0.59        0.53      -63.42


     Entering Dynamics:    iteration =     5
                           time      =   0.0048 pico-seconds


ATOMIC_POSITIONS (angstrom)
Fe            0.0021874542        0.0005687488        0.0009400152
Se            1.5204539081        1.5215987485        1.5213361679


     kinetic energy (Ekin) =           0.00009199 Ry
     temperature           =           9.68309228 K 
     Ekin + Etot (const)   =        -731.00548941 Ry
     Ions kinetic stress =            0.05 (kbar)
                                      0.11           0.03           0.05
                                      0.03           0.01           0.01
                                      0.05           0.01           0.02



     Linear momentum :   -0.0000000000   -0.0000000000   -0.0000000000

     Writing config-only to output data dir ./work/try_0/calculation_try_0.save/
     NEW-OLD atomic charge density approx. for the potential

     Check: negative core charge=   -0.000008

     total cpu time spent up to now is      151.7 secs

     Self-consistent Calculation

     iteration #  1     ecut=    60.00 Ry     beta= 0.70
     Davidson diagonalization with overlap
     ethr =  1.00E-06,  avg # of iterations =  3.0

     total cpu time spent up to now is      159.2 secs

     total energy              =    -731.00552128 Ry
     estimated scf accuracy    <       0.00008244 Ry

     iteration #  2     ecut=    60.00 Ry     beta= 0.70
     Davidson diagonalization with overlap
     ethr =  2.58E-07,  avg # of iterations =  4.0

     total cpu time spent up to now is      166.9 secs

     total energy              =    -731.00545061 Ry
     estimated scf accuracy    <       0.00161141 Ry

     iteration #  3     ecut=    60.00 Ry     beta= 0.70
     Davidson diagonalization with overlap
     ethr =  2.58E-07,  avg # of iterations =  4.0

     total cpu time spent up to now is      174.4 secs

     total energy              =    -731.00557585 Ry
     estimated scf accuracy    <       0.00003181 Ry

     iteration #  4     ecut=    60.00 Ry     beta= 0.70
     Davidson diagonalization with overlap
     ethr =  9.94E-08,  avg # of iterations =  1.1

     total cpu time spent up to now is      179.8 secs

     End of self-consistent calculation

     Number of k-points >= 100: set verbosity='high' to print the bands.

     the Fermi energy is    16.1841 ev

!    total energy              =    -731.00558388 Ry
     estimated scf accuracy    <       0.00000081 Ry

     convergence has been achieved in   4 iterations

     Forces acting on atoms (cartesian axes, Ry/au):

     atom    1 type  2   force =     0.00014309    0.00003387    0.00006341
     atom    2 type  1   force =    -0.00014309   -0.00003387   -0.00006341

     Total force =     0.000226     Total SCF correction =     0.001610
     SCF correction compared to forces is large: reduce conv_thr to get better values


     Computing stress (Cartesian axis) and pressure

          total   stress  (Ry/bohr**3)                   (kbar)     P=      -59.68
  -0.00040577   0.00000321  -0.00000511          -59.69        0.47       -0.75
   0.00000321  -0.00039966   0.00000495            0.47      -58.79        0.73
  -0.00000511   0.00000495  -0.00041171           -0.75        0.73      -60.56


     Entering Dynamics:    iteration =     6
                           time      =   0.0058 pico-seconds


ATOMIC_POSITIONS (angstrom)
Fe            0.0026211852        0.0006814352        0.0011263350
Se            1.5201471488        1.5215190503        1.5212043918


     kinetic energy (Ekin) =           0.00009124 Ry
     temperature           =           9.60370278 K 
     Ekin + Etot (const)   =        -731.00549264 Ry
     Ions kinetic stress =            0.05 (kbar)
                                      0.11           0.03           0.05
                                      0.03           0.01           0.01
                                      0.05           0.01           0.02



     Linear momentum :   -0.0000000000   -0.0000000000    0.0000000000

     Writing config-only to output data dir ./work/try_0/calculation_try_0.save/
     NEW-OLD atomic charge density approx. for the potential

     Check: negative core charge=   -0.000008

     total cpu time spent up to now is      182.2 secs

     Self-consistent Calculation

     iteration #  1     ecut=    60.00 Ry     beta= 0.70
     Davidson diagonalization with overlap
     ethr =  1.00E-06,  avg # of iterations =  3.0

     Threshold (ethr) on eigenvalues was too large:
     Diagonalizing with lowered threshold

     Davidson diagonalization with overlap
     ethr =  3.79E-08,  avg # of iterations =  2.1

     total cpu time spent up to now is      195.8 secs

     total energy              =    -731.00557932 Ry
     estimated scf accuracy    <       0.00001250 Ry

     iteration #  2     ecut=    60.00 Ry     beta= 0.70
     Davidson diagonalization with overlap
     ethr =  3.91E-08,  avg # of iterations =  3.4

     total cpu time spent up to now is      203.0 secs

     total energy              =    -731.00555335 Ry
     estimated scf accuracy    <       0.00015410 Ry

     iteration #  3     ecut=    60.00 Ry     beta= 0.70
     Davidson diagonalization with overlap
     ethr =  3.91E-08,  avg # of iterations =  3.9

     total cpu time spent up to now is      210.5 secs

     total energy              =    -731.00558670 Ry
     estimated scf accuracy    <       0.00001689 Ry

     iteration #  4     ecut=    60.00 Ry     beta= 0.70
     Davidson diagonalization with overlap
     ethr =  3.91E-08,  avg # of iterations =  1.4

     total cpu time spent up to now is      216.1 secs

     End of self-consistent calculation

     Number of k-points >= 100: set verbosity='high' to print the bands.

     the Fermi energy is    16.1844 ev

!    total energy              =    -731.00558468 Ry
     estimated scf accuracy    <       0.00000057 Ry

     convergence has been achieved in   4 iterations

     Forces acting on atoms (cartesian axes, Ry/au):

     atom    1 type  2   force =     0.00033845    0.00009641    0.00013464
     atom    2 type  1   force =    -0.00033845   -0.00009641   -0.00013464

     Total force =     0.000533     Total SCF correction =     0.000806
     SCF correction compared to forces is large: reduce conv_thr to get better values


     Computing stress (Cartesian axis) and pressure

          total   stress  (Ry/bohr**3)                   (kbar)     P=      -60.78
  -0.00042100   0.00000680  -0.00000078          -61.93        1.00       -0.11
   0.00000680  -0.00040606   0.00000780            1.00      -59.73        1.15
  -0.00000078   0.00000780  -0.00041236           -0.11        1.15      -60.66


     Entering Dynamics:    iteration =     7
                           time      =   0.0068 pico-seconds


ATOMIC_POSITIONS (angstrom)
Fe            0.0030563237        0.0007945226        0.0013132148
Se            1.5198393942        1.5214390685        1.5210722198


     kinetic energy (Ekin) =           0.00009166 Ry
     temperature           =           9.64794516 K 
     Ekin + Etot (const)   =        -731.00549302 Ry
     Ions kinetic stress =            0.05 (kbar)
                                      0.11           0.03           0.05
                                      0.03           0.01           0.01
                                      0.05           0.01           0.02



     Linear momentum :   -0.0000000000   -0.0000000000    0.0000000000

     Writing config-only to output data dir ./work/try_0/calculation_try_0.save/
     NEW-OLD atomic charge density approx. for the potential

     Check: negative core charge=   -0.000008

     total cpu time spent up to now is      218.4 secs

     Self-consistent Calculation

     iteration #  1     ecut=    60.00 Ry     beta= 0.70
     Davidson diagonalization with overlap
     ethr =  1.00E-06,  avg # of iterations =  3.0

     Threshold (ethr) on eigenvalues was too large:
     Diagonalizing with lowered threshold

     Davidson diagonalization with overlap
     ethr =  2.10E-08,  avg # of iterations =  2.3

     total cpu time spent up to now is      232.0 secs

     End of self-consistent calculation

     Number of k-points >= 100: set verbosity='high' to print the bands.

     the Fermi energy is    16.1827 ev

!    total energy              =    -731.00557995 Ry
     estimated scf accuracy    <       0.00000682 Ry

     convergence has been achieved in   1 iterations

     Forces acting on atoms (cartesian axes, Ry/au):

     atom    1 type  2   force =    -0.00087534   -0.00028866   -0.00039053
     atom    2 type  1   force =     0.00087534    0.00028866    0.00039053

     Total force =     0.001416     Total SCF correction =     0.000682
     SCF correction compared to forces is large: reduce conv_thr to get better values


     Computing stress (Cartesian axis) and pressure

          total   stress  (Ry/bohr**3)                   (kbar)     P=      -55.06
  -0.00035161  -0.00000561  -0.00000406          -51.72       -0.83       -0.60
  -0.00000561  -0.00039180  -0.00001609           -0.83      -57.64       -2.37
  -0.00000406  -0.00001609  -0.00037936           -0.60       -2.37      -55.81


     Entering Dynamics:    iteration =     8
                           time      =   0.0077 pico-seconds


ATOMIC_POSITIONS (angstrom)
Fe            0.0034878220        0.0009064095        0.0014984706
Se            1.5195342140        1.5213599357        1.5209411964


     kinetic energy (Ekin) =           0.00009117 Ry
     temperature           =           9.59661820 K 
     Ekin + Etot (const)   =        -731.00548878 Ry
     Ions kinetic stress =            0.05 (kbar)
                                      0.11           0.03           0.05
                                      0.03           0.01           0.01
                                      0.05           0.01           0.02



     Linear momentum :   -0.0000000000   -0.0000000000    0.0000000000

     Writing config-only to output data dir ./work/try_0/calculation_try_0.save/
     NEW-OLD atomic charge density approx. for the potential

     Check: negative core charge=   -0.000008

     total cpu time spent up to now is      234.4 secs

     Self-consistent Calculation

     iteration #  1     ecut=    60.00 Ry     beta= 0.70
     Davidson diagonalization with overlap
     ethr =  1.00E-06,  avg # of iterations =  3.0

     total cpu time spent up to now is      241.9 secs

     total energy              =    -731.00554223 Ry
     estimated scf accuracy    <       0.00007943 Ry

     iteration #  2     ecut=    60.00 Ry     beta= 0.70
     Davidson diagonalization with overlap
     ethr =  2.48E-07,  avg # of iterations =  3.9

     total cpu time spent up to now is      249.5 secs

     total energy              =    -731.00538613 Ry
     estimated scf accuracy    <       0.00145203 Ry

     iteration #  3     ecut=    60.00 Ry     beta= 0.70
     Davidson diagonalization with overlap
     ethr =  2.48E-07,  avg # of iterations =  4.0

     total cpu time spent up to now is      257.0 secs

     total energy              =    -731.00558493 Ry
     estimated scf accuracy    <       0.00003930 Ry

     iteration #  4     ecut=    60.00 Ry     beta= 0.70
     Davidson diagonalization with overlap
     ethr =  1.23E-07,  avg # of iterations =  1.1

     total cpu time spent up to now is      262.4 secs

     End of self-consistent calculation

     Number of k-points >= 100: set verbosity='high' to print the bands.

     the Fermi energy is    16.1846 ev

!    total energy              =    -731.00558561 Ry
     estimated scf accuracy    <       0.00000103 Ry

     convergence has been achieved in   4 iterations

     Forces acting on atoms (cartesian axes, Ry/au):

     atom    1 type  2   force =     0.00036062    0.00006018    0.00012044
     atom    2 type  1   force =    -0.00036062   -0.00006018   -0.00012044

     Total force =     0.000544     Total SCF correction =     0.001594
     SCF correction compared to forces is large: reduce conv_thr to get better values


     Computing stress (Cartesian axis) and pressure

          total   stress  (Ry/bohr**3)                   (kbar)     P=      -60.97
  -0.00041530   0.00000185  -0.00000622          -61.09        0.27       -0.92
   0.00000185  -0.00040675   0.00000463            0.27      -59.83        0.68
  -0.00000622   0.00000463  -0.00042145           -0.92        0.68      -62.00


     Entering Dynamics:    iteration =     9
                           time      =   0.0087 pico-seconds


ATOMIC_POSITIONS (angstrom)
Fe            0.0039208200        0.0010185467        0.0016842272
Se            1.5192279733        1.5212806259        1.5208098188


     kinetic energy (Ekin) =           0.00009069 Ry
     temperature           =           9.54591966 K 
     Ekin + Etot (const)   =        -731.00549492 Ry
     Ions kinetic stress =            0.05 (kbar)
                                      0.11           0.03           0.05
                                      0.03           0.01           0.01
                                      0.05           0.01           0.02



     Linear momentum :   -0.0000000000    0.0000000000    0.0000000000

     Writing config-only to output data dir ./work/try_0/calculation_try_0.save/
     NEW-OLD atomic charge density approx. for the potential

     Check: negative core charge=   -0.000008

     total cpu time spent up to now is      264.8 secs

     Self-consistent Calculation

     iteration #  1     ecut=    60.00 Ry     beta= 0.70
     Davidson diagonalization with overlap
     ethr =  1.00E-06,  avg # of iterations =  3.0

     Threshold (ethr) on eigenvalues was too large:
     Diagonalizing with lowered threshold

     Davidson diagonalization with overlap
     ethr =  4.25E-08,  avg # of iterations =  2.0

     total cpu time spent up to now is      278.1 secs

     total energy              =    -731.00557551 Ry
     estimated scf accuracy    <       0.00001403 Ry

     iteration #  2     ecut=    60.00 Ry     beta= 0.70
     Davidson diagonalization with overlap
     ethr =  4.39E-08,  avg # of iterations =  3.5

     total cpu time spent up to now is      285.4 secs

     total energy              =    -731.00557726 Ry
     estimated scf accuracy    <       0.00017273 Ry

     iteration #  3     ecut=    60.00 Ry     beta= 0.70
     Davidson diagonalization with overlap
     ethr =  4.39E-08,  avg # of iterations =  3.9

     total cpu time spent up to now is      292.9 secs

     total energy              =    -731.00558123 Ry
     estimated scf accuracy    <       0.00001857 Ry

     iteration #  4     ecut=    60.00 Ry     beta= 0.70
     Davidson diagonalization with overlap
     ethr =  4.39E-08,  avg # of iterations =  1.3

     total cpu time spent up to now is      298.5 secs

     End of self-consistent calculation

     Number of k-points >= 100: set verbosity='high' to print the bands.

     the Fermi energy is    16.1843 ev

!    total energy              =    -731.00558656 Ry
     estimated scf accuracy    <       0.00000045 Ry

     convergence has been achieved in   4 iterations

     Forces acting on atoms (cartesian axes, Ry/au):

     atom    1 type  2   force =     0.00052065    0.00010699    0.00022806
     atom    2 type  1   force =    -0.00052065   -0.00010699   -0.00022806

     Total force =     0.000818     Total SCF correction =     0.000850
     SCF correction compared to forces is large: reduce conv_thr to get better values


     Computing stress (Cartesian axis) and pressure

          total   stress  (Ry/bohr**3)                   (kbar)     P=      -59.77
  -0.00041380   0.00000493  -0.00000088          -60.87        0.73       -0.13
   0.00000493  -0.00039999   0.00000796            0.73      -58.84        1.17
  -0.00000088   0.00000796  -0.00040509           -0.13        1.17      -59.59


     Entering Dynamics:    iteration =    10
                           time      =   0.0097 pico-seconds


ATOMIC_POSITIONS (angstrom)
Fe            0.0043559831        0.0011311288        0.0018709322
Se            1.5189202011        1.5212010014        1.5206777704


     kinetic energy (Ekin) =           0.00009144 Ry
     temperature           =           9.62491940 K 
     Ekin + Etot (const)   =        -731.00549512 Ry
     Ions kinetic stress =            0.05 (kbar)
                                      0.11           0.03           0.05
                                      0.03           0.01           0.01
                                      0.05           0.01           0.02



     Linear momentum :   -0.0000000000    0.0000000000    0.0000000000

     Writing config-only to output data dir ./work/try_0/calculation_try_0.save/
     NEW-OLD atomic charge density approx. for the potential

     Check: negative core charge=   -0.000008

     total cpu time spent up to now is      300.8 secs

     Self-consistent Calculation

     iteration #  1     ecut=    60.00 Ry     beta= 0.70
     Davidson diagonalization with overlap
     ethr =  1.00E-06,  avg # of iterations =  3.0

     Threshold (ethr) on eigenvalues was too large:
     Diagonalizing with lowered threshold

     Davidson diagonalization with overlap
     ethr =  2.05E-08,  avg # of iterations =  2.3

     total cpu time spent up to now is      314.6 secs

     End of self-consistent calculation

     Number of k-points >= 100: set verbosity='high' to print the bands.

     the Fermi energy is    16.1865 ev

!    total energy              =    -731.00558404 Ry
     estimated scf accuracy    <       0.00000670 Ry

     convergence has been achieved in   1 iterations

     Forces acting on atoms (cartesian axes, Ry/au):

     atom    1 type  2   force =    -0.00065574   -0.00023777   -0.00028303
     atom    2 type  1   force =     0.00065574    0.00023777    0.00028303

     Total force =     0.001065     Total SCF correction =     0.000579
     SCF correction compared to forces is large: reduce conv_thr to get better values


     Computing stress (Cartesian axis) and pressure

          total   stress  (Ry/bohr**3)                   (kbar)     P=      -66.16
  -0.00042983  -0.00000214  -0.00000428          -63.23       -0.31       -0.63
  -0.00000214  -0.00046360  -0.00001646           -0.31      -68.20       -2.42
  -0.00000428  -0.00001646  -0.00045572           -0.63       -2.42      -67.04


     Entering Dynamics:    iteration =    11
                           time      =   0.0106 pico-seconds


ATOMIC_POSITIONS (angstrom)
Fe            0.0047884194        0.0012427222        0.0020564602
Se            1.5186143577        1.5211220762        1.5205465544


     kinetic energy (Ekin) =           0.00009131 Ry
     temperature           =           9.61073672 K 
     Ekin + Etot (const)   =        -731.00549273 Ry
     Ions kinetic stress =            0.05 (kbar)
                                      0.11           0.03           0.05
                                      0.03           0.01           0.01
                                      0.05           0.01           0.02



     Linear momentum :   -0.0000000000   -0.0000000000    0.0000000000

     Writing config-only to output data dir ./work/try_0/calculation_try_0.save/
     NEW-OLD atomic charge density approx. for the potential

     Check: negative core charge=   -0.000008

     total cpu time spent up to now is      317.0 secs

     Self-consistent Calculation

     iteration #  1     ecut=    60.00 Ry     beta= 0.70
     Davidson diagonalization with overlap
     ethr =  1.00E-06,  avg # of iterations =  3.0

     total cpu time spent up to now is      324.5 secs

     total energy              =    -731.00549294 Ry
     estimated scf accuracy    <       0.00012296 Ry

     iteration #  2     ecut=    60.00 Ry     beta= 0.70
     Davidson diagonalization with overlap
     ethr =  3.84E-07,  avg # of iterations =  4.0

     total cpu time spent up to now is      332.4 secs

     total energy              =    -731.00536020 Ry
     estimated scf accuracy    <       0.00273618 Ry

     iteration #  3     ecut=    60.00 Ry     beta= 0.70
     Davidson diagonalization with overlap
     ethr =  3.84E-07,  avg # of iterations =  4.0

     total cpu time spent up to now is      339.9 secs

     total energy              =    -731.00558065 Ry
     estimated scf accuracy    <       0.00002501 Ry

     iteration #  4     ecut=    60.00 Ry     beta= 0.70
     Davidson diagonalization with overlap
     ethr =  7.81E-08,  avg # of iterations =  1.1

     total cpu time spent up to now is      345.3 secs

     End of self-consistent calculation

     Number of k-points >= 100: set verbosity='high' to print the bands.

     the Fermi energy is    16.1841 ev

!    total energy              =    -731.00558777 Ry
     estimated scf accuracy    <       0.00000090 Ry

     convergence has been achieved in   4 iterations

     Forces acting on atoms (cartesian axes, Ry/au):

     atom    1 type  2   force =     0.00047119    0.00010057    0.00020124
     atom    2 type  1   force =    -0.00047119   -0.00010057   -0.00020124

     Total force =     0.000738     Total SCF correction =     0.001620
     SCF correction compared to forces is large: reduce conv_thr to get better values


     Computing stress (Cartesian axis) and pressure

          total   stress  (Ry/bohr**3)                   (kbar)     P=      -59.50
  -0.00040705   0.00000194  -0.00000553          -59.88        0.29       -0.81
   0.00000194  -0.00039687   0.00000656            0.29      -58.38        0.97
  -0.00000553   0.00000656  -0.00040953           -0.81        0.97      -60.24


     Entering Dynamics:    iteration =    12
                           time      =   0.0116 pico-seconds


ATOMIC_POSITIONS (angstrom)
Fe            0.0052228151        0.0013547338        0.0022428251
Se            1.5183071283        1.5210428553        1.5204147466


     kinetic energy (Ekin) =           0.00009113 Ry
     temperature           =           9.59195839 K 
     Ekin + Etot (const)   =        -731.00549664 Ry
     Ions kinetic stress =            0.05 (kbar)
                                      0.11           0.03           0.05
                                      0.03           0.01           0.01
                                      0.05           0.01           0.02



     Linear momentum :    0.0000000000    0.0000000000    0.0000000000

     Writing config-only to output data dir ./work/try_0/calculation_try_0.save/
     NEW-OLD atomic charge density approx. for the potential

     Check: negative core charge=   -0.000008

     total cpu time spent up to now is      347.7 secs

     Self-consistent Calculation

     iteration #  1     ecut=    60.00 Ry     beta= 0.70
     Davidson diagonalization with overlap
     ethr =  1.00E-06,  avg # of iterations =  3.0

     Threshold (ethr) on eigenvalues was too large:
     Diagonalizing with lowered threshold

     Davidson diagonalization with overlap
     ethr =  3.54E-08,  avg # of iterations =  2.1

     total cpu time spent up to now is      361.1 secs

     total energy              =    -731.00558403 Ry
     estimated scf accuracy    <       0.00001163 Ry

     iteration #  2     ecut=    60.00 Ry     beta= 0.70
     Davidson diagonalization with overlap
     ethr =  3.63E-08,  avg # of iterations =  3.3

     total cpu time spent up to now is      368.3 secs

     total energy              =    -731.00556042 Ry
     estimated scf accuracy    <       0.00013702 Ry

     iteration #  3     ecut=    60.00 Ry     beta= 0.70
     Davidson diagonalization with overlap
     ethr =  3.63E-08,  avg # of iterations =  3.9

     total cpu time spent up to now is      375.7 secs

     total energy              =    -731.00559116 Ry
     estimated scf accuracy    <       0.00001670 Ry

     iteration #  4     ecut=    60.00 Ry     beta= 0.70
     Davidson diagonalization with overlap
     ethr =  3.63E-08,  avg # of iterations =  1.5

     total cpu time spent up to now is      381.3 secs

     End of self-consistent calculation

     Number of k-points >= 100: set verbosity='high' to print the bands.

     the Fermi energy is    16.1844 ev

!    total energy              =    -731.00558914 Ry
     estimated scf accuracy    <       0.00000041 Ry

     convergence has been achieved in   4 iterations

     Forces acting on atoms (cartesian axes, Ry/au):

     atom    1 type  2   force =     0.00066986    0.00016148    0.00027286
     atom    2 type  1   force =    -0.00066986   -0.00016148   -0.00027286

     Total force =     0.001048     Total SCF correction =     0.000798
     SCF correction compared to forces is large: reduce conv_thr to get better values


     Computing stress (Cartesian axis) and pressure

          total   stress  (Ry/bohr**3)                   (kbar)     P=      -60.78
  -0.00042068   0.00000421  -0.00000115          -61.88        0.62       -0.17
   0.00000421  -0.00040747   0.00000872            0.62      -59.94        1.28
  -0.00000115   0.00000872  -0.00041143           -0.17        1.28      -60.52


     Entering Dynamics:    iteration =    13
                           time      =   0.0126 pico-seconds


ATOMIC_POSITIONS (angstrom)
Fe            0.0056599965        0.0014674169        0.0024303247
Se            1.5179979288        1.5209631594        1.5202821362


     kinetic energy (Ekin) =           0.00009212 Ry
     temperature           =           9.69615540 K 
     Ekin + Etot (const)   =        -731.00549702 Ry
     Ions kinetic stress =            0.05 (kbar)
                                      0.11           0.03           0.05
                                      0.03           0.01           0.01
                                      0.05           0.01           0.02



     Linear momentum :   -0.0000000000    0.0000000000    0.0000000000

     Writing config-only to output data dir ./work/try_0/calculation_try_0.save/
     NEW-OLD atomic charge density approx. for the potential

     Check: negative core charge=   -0.000008

     total cpu time spent up to now is      383.6 secs

     Self-consistent Calculation

     iteration #  1     ecut=    60.00 Ry     beta= 0.70
     Davidson diagonalization with overlap
     ethr =  1.00E-06,  avg # of iterations =  3.0

     Threshold (ethr) on eigenvalues was too large:
     Diagonalizing with lowered threshold

     Davidson diagonalization with overlap
     ethr =  1.66E-08,  avg # of iterations =  2.5

     total cpu time spent up to now is      397.4 secs

     End of self-consistent calculation

     Number of k-points >= 100: set verbosity='high' to print the bands.

     the Fermi energy is    16.1828 ev

!    total energy              =    -731.00558561 Ry
     estimated scf accuracy    <       0.00000540 Ry

     convergence has been achieved in   1 iterations

     Forces acting on atoms (cartesian axes, Ry/au):

     atom    1 type  2   force =    -0.00043883   -0.00017080   -0.00017925
     atom    2 type  1   force =     0.00043883    0.00017080    0.00017925

     Total force =     0.000713     Total SCF correction =     0.000676
     SCF correction compared to forces is large: reduce conv_thr to get better values


     Computing stress (Cartesian axis) and pressure

          total   stress  (Ry/bohr**3)                   (kbar)     P=      -55.05
  -0.00035712  -0.00000111  -0.00000450          -52.53       -0.16       -0.66
  -0.00000111  -0.00038583  -0.00001726           -0.16      -56.76       -2.54
  -0.00000450  -0.00001726  -0.00037981           -0.66       -2.54      -55.87


     Entering Dynamics:    iteration =    14
                           time      =   0.0135 pico-seconds


ATOMIC_POSITIONS (angstrom)
Fe            0.0060953530        0.0015793897        0.0026170789
Se            1.5176900199        1.5208839658        1.5201500530


     kinetic energy (Ekin) =           0.00009231 Ry
     temperature           =           9.71605451 K 
     Ekin + Etot (const)   =        -731.00549330 Ry
     Ions kinetic stress =            0.05 (kbar)
                                      0.11           0.03           0.05
                                      0.03           0.01           0.01
                                      0.05           0.01           0.02



     Linear momentum :   -0.0000000000   -0.0000000000   -0.0000000000

     Writing config-only to output data dir ./work/try_0/calculation_try_0.save/
     NEW-OLD atomic charge density approx. for the potential

     Check: negative core charge=   -0.000008

     total cpu time spent up to now is      399.8 secs

     Self-consistent Calculation

     iteration #  1     ecut=    60.00 Ry     beta= 0.70
     Davidson diagonalization with overlap
     ethr =  1.00E-06,  avg # of iterations =  3.0

     total cpu time spent up to now is      407.3 secs

     total energy              =    -731.00555142 Ry
     estimated scf accuracy    <       0.00007155 Ry

     iteration #  2     ecut=    60.00 Ry     beta= 0.70
     Davidson diagonalization with overlap
     ethr =  2.24E-07,  avg # of iterations =  4.0

     total cpu time spent up to now is      415.0 secs

     total energy              =    -731.00540337 Ry
     estimated scf accuracy    <       0.00138018 Ry

     iteration #  3     ecut=    60.00 Ry     beta= 0.70
     Davidson diagonalization with overlap
     ethr =  2.24E-07,  avg # of iterations =  4.0

     total cpu time spent up to now is      422.6 secs

     total energy              =    -731.00559042 Ry
     estimated scf accuracy    <       0.00003070 Ry

     iteration #  4     ecut=    60.00 Ry     beta= 0.70
     Davidson diagonalization with overlap
     ethr =  9.59E-08,  avg # of iterations =  1.1

     total cpu time spent up to now is      428.0 secs

     End of self-consistent calculation

     Number of k-points >= 100: set verbosity='high' to print the bands.

     the Fermi energy is    16.1846 ev

!    total energy              =    -731.00559130 Ry
     estimated scf accuracy    <       0.00000064 Ry

     convergence has been achieved in   4 iterations

     Forces acting on atoms (cartesian axes, Ry/au):

     atom    1 type  2   force =     0.00066984    0.00012545    0.00024268
     atom    2 type  1   force =    -0.00066984   -0.00012545   -0.00024268

     Total force =     0.001023     Total SCF correction =     0.001700
     SCF correction compared to forces is large: reduce conv_thr to get better values


     Computing stress (Cartesian axis) and pressure

          total   stress  (Ry/bohr**3)                   (kbar)     P=      -60.94
  -0.00041627   0.00000203  -0.00000435          -61.24        0.30       -0.64
   0.00000203  -0.00040951   0.00000636            0.30      -60.24        0.94
  -0.00000435   0.00000636  -0.00041710           -0.64        0.94      -61.36


     Entering Dynamics:    iteration =    15
                           time      =   0.0145 pico-seconds


ATOMIC_POSITIONS (angstrom)
Fe            0.0065334950        0.0016918842        0.0028048423
Se            1.5173801410        1.5208044033        1.5200172561


     kinetic energy (Ekin) =           0.00009248 Ry
     temperature           =           9.73432741 K 
     Ekin + Etot (const)   =        -731.00549882 Ry
     Ions kinetic stress =            0.05 (kbar)
                                      0.11           0.03           0.05
                                      0.03           0.01           0.01
                                      0.05           0.01           0.02



     Linear momentum :   -0.0000000000   -0.0000000000   -0.0000000000

     Writing config-only to output data dir ./work/try_0/calculation_try_0.save/
     NEW-OLD atomic charge density approx. for the potential

     Check: negative core charge=   -0.000008

     total cpu time spent up to now is      430.3 secs

     Self-consistent Calculation

     iteration #  1     ecut=    60.00 Ry     beta= 0.70
     Davidson diagonalization with overlap
     ethr =  1.00E-06,  avg # of iterations =  3.0

     Threshold (ethr) on eigenvalues was too large:
     Diagonalizing with lowered threshold

     Davidson diagonalization with overlap
     ethr =  2.76E-08,  avg # of iterations =  2.1

     total cpu time spent up to now is      443.9 secs

     End of self-consistent calculation

     Number of k-points >= 100: set verbosity='high' to print the bands.

     the Fermi energy is    16.1807 ev

!    total energy              =    -731.00558349 Ry
     estimated scf accuracy    <       0.00000913 Ry

     convergence has been achieved in   1 iterations

     Forces acting on atoms (cartesian axes, Ry/au):

     atom    1 type  2   force =    -0.00028889   -0.00015358   -0.00013480
     atom    2 type  1   force =     0.00028889    0.00015358    0.00013480

     Total force =     0.000500     Total SCF correction =     0.000654
     SCF correction compared to forces is large: reduce conv_thr to get better values


     Computing stress (Cartesian axis) and pressure

          total   stress  (Ry/bohr**3)                   (kbar)     P=      -49.40
  -0.00033052   0.00000217  -0.00000179          -48.62        0.32       -0.26
   0.00000217  -0.00035736  -0.00001194            0.32      -52.57       -1.76
  -0.00000179  -0.00001194  -0.00031951           -0.26       -1.76      -47.00


     Entering Dynamics:    iteration =    16
                           time      =   0.0155 pico-seconds


ATOMIC_POSITIONS (angstrom)
Fe            0.0069704357        0.0018037400        0.0029920451
Se            1.5170711117        1.5207252926        1.5198848556


     kinetic energy (Ekin) =           0.00009278 Ry
     temperature           =           9.76549939 K 
     Ekin + Etot (const)   =        -731.00549071 Ry
     Ions kinetic stress =            0.05 (kbar)
                                      0.11           0.03           0.05
                                      0.03           0.01           0.01
                                      0.05           0.01           0.02



     Linear momentum :   -0.0000000000   -0.0000000000   -0.0000000000

     Writing config-only to output data dir ./work/try_0/calculation_try_0.save/
     NEW-OLD atomic charge density approx. for the potential

     Check: negative core charge=   -0.000008

     total cpu time spent up to now is      446.2 secs

     Self-consistent Calculation

     iteration #  1     ecut=    60.00 Ry     beta= 0.70
     Davidson diagonalization with overlap
     ethr =  1.00E-06,  avg # of iterations =  3.0

     total cpu time spent up to now is      454.1 secs

     total energy              =    -731.00538975 Ry
     estimated scf accuracy    <       0.00030379 Ry

     iteration #  2     ecut=    60.00 Ry     beta= 0.70
     Davidson diagonalization with overlap
     ethr =  9.49E-07,  avg # of iterations =  4.1

     total cpu time spent up to now is      462.2 secs

     total energy              =    -731.00473854 Ry
     estimated scf accuracy    <       0.00796149 Ry

     iteration #  3     ecut=    60.00 Ry     beta= 0.70
     Davidson diagonalization with overlap
     ethr =  9.49E-07,  avg # of iterations =  4.0

     total cpu time spent up to now is      470.0 secs

     total energy              =    -731.00559198 Ry
     estimated scf accuracy    <       0.00002109 Ry

     iteration #  4     ecut=    60.00 Ry     beta= 0.70
     Davidson diagonalization with overlap
     ethr =  6.59E-08,  avg # of iterations =  1.6

     total cpu time spent up to now is      475.6 secs

     End of self-consistent calculation

     Number of k-points >= 100: set verbosity='high' to print the bands.

     the Fermi energy is    16.1850 ev

!    total energy              =    -731.00559401 Ry
     estimated scf accuracy    <       0.00000049 Ry

     convergence has been achieved in   4 iterations

     Forces acting on atoms (cartesian axes, Ry/au):

     atom    1 type  2   force =     0.00076168    0.00017247    0.00032407
     atom    2 type  1   force =    -0.00076168   -0.00017247   -0.00032407

     Total force =     0.001196     Total SCF correction =     0.001607
     SCF correction compared to forces is large: reduce conv_thr to get better values


     Computing stress (Cartesian axis) and pressure

          total   stress  (Ry/bohr**3)                   (kbar)     P=      -61.90
  -0.00042424   0.00000411  -0.00000212          -62.41        0.60       -0.31
   0.00000411  -0.00041577   0.00000435            0.60      -61.16        0.64
  -0.00000212   0.00000435  -0.00042234           -0.31        0.64      -62.13


     Entering Dynamics:    iteration =    17
                           time      =   0.0164 pico-seconds


ATOMIC_POSITIONS (angstrom)
Fe            0.0074105439        0.0019163130        0.0031805956
Se            1.5167598421        1.5206456745        1.5197515020


     kinetic energy (Ekin) =           0.00009317 Ry
     temperature           =           9.80705450 K 
     Ekin + Etot (const)   =        -731.00550084 Ry
     Ions kinetic stress =            0.05 (kbar)
                                      0.12           0.03           0.05
                                      0.03           0.01           0.01
                                      0.05           0.01           0.02



     Linear momentum :   -0.0000000000    0.0000000000   -0.0000000000

     Writing config-only to output data dir ./work/try_0/calculation_try_0.save/
     NEW-OLD atomic charge density approx. for the potential

     Check: negative core charge=   -0.000008

     total cpu time spent up to now is      478.0 secs

     Self-consistent Calculation

     iteration #  1     ecut=    60.00 Ry     beta= 0.70
     Davidson diagonalization with overlap
     ethr =  1.00E-06,  avg # of iterations =  3.0

     Threshold (ethr) on eigenvalues was too large:
     Diagonalizing with lowered threshold

     Davidson diagonalization with overlap
     ethr =  3.78E-08,  avg # of iterations =  2.1

     total cpu time spent up to now is      491.4 secs

     total energy              =    -731.00558357 Ry
     estimated scf accuracy    <       0.00001251 Ry

     iteration #  2     ecut=    60.00 Ry     beta= 0.70
     Davidson diagonalization with overlap
     ethr =  3.91E-08,  avg # of iterations =  3.9

     total cpu time spent up to now is      499.0 secs

     total energy              =    -731.00558488 Ry
     estimated scf accuracy    <       0.00024032 Ry

     iteration #  3     ecut=    60.00 Ry     beta= 0.70
     Davidson diagonalization with overlap
     ethr =  3.91E-08,  avg # of iterations =  4.0

     total cpu time spent up to now is      506.5 secs

     End of self-consistent calculation

     Number of k-points >= 100: set verbosity='high' to print the bands.

     the Fermi energy is    16.1814 ev

!    total energy              =    -731.00558848 Ry
     estimated scf accuracy    <       0.00000774 Ry

     convergence has been achieved in   3 iterations

     Forces acting on atoms (cartesian axes, Ry/au):

     atom    1 type  2   force =     0.00092824    0.00019952    0.00038707
     atom    2 type  1   force =    -0.00092824   -0.00019952   -0.00038707

     Total force =     0.001450     Total SCF correction =     0.001108
     SCF correction compared to forces is large: reduce conv_thr to get better values


     Computing stress (Cartesian axis) and pressure

          total   stress  (Ry/bohr**3)                   (kbar)     P=      -52.67
  -0.00036308   0.00000607  -0.00000088          -53.41        0.89       -0.13
   0.00000607  -0.00033175   0.00000879            0.89      -48.80        1.29
  -0.00000088   0.00000879  -0.00037937           -0.13        1.29      -55.81


     Entering Dynamics:    iteration =    18
                           time      =   0.0174 pico-seconds


ATOMIC_POSITIONS (angstrom)
Fe            0.0078545123        0.0020297158        0.0033707557
Se            1.5164458424        1.5205654696        1.5196170100


     kinetic energy (Ekin) =           0.00009466 Ry
     temperature           =           9.96327626 K 
     Ekin + Etot (const)   =        -731.00549382 Ry
     Ions kinetic stress =            0.05 (kbar)
                                      0.12           0.03           0.05
                                      0.03           0.01           0.01
                                      0.05           0.01           0.02



     Linear momentum :   -0.0000000000    0.0000000000   -0.0000000000

     Writing config-only to output data dir ./work/try_0/calculation_try_0.save/
     NEW-OLD atomic charge density approx. for the potential

     Check: negative core charge=   -0.000008

     total cpu time spent up to now is      508.9 secs

     Self-consistent Calculation

     iteration #  1     ecut=    60.00 Ry     beta= 0.70
     Davidson diagonalization with overlap
     ethr =  1.00E-06,  avg # of iterations =  3.0

     total cpu time spent up to now is      516.5 secs

     total energy              =    -731.00546304 Ry
     estimated scf accuracy    <       0.00020511 Ry

     iteration #  2     ecut=    60.00 Ry     beta= 0.70
     Davidson diagonalization with overlap
     ethr =  6.41E-07,  avg # of iterations =  4.1

     total cpu time spent up to now is      524.4 secs

     total energy              =    -731.00502794 Ry
     estimated scf accuracy    <       0.00505597 Ry

     iteration #  3     ecut=    60.00 Ry     beta= 0.70
     Davidson diagonalization with overlap
     ethr =  6.41E-07,  avg # of iterations =  4.0

     total cpu time spent up to now is      532.0 secs

     total energy              =    -731.00559568 Ry
     estimated scf accuracy    <       0.00002639 Ry

     iteration #  4     ecut=    60.00 Ry     beta= 0.70
     Davidson diagonalization with overlap
     ethr =  8.25E-08,  avg # of iterations =  1.2

     total cpu time spent up to now is      537.5 secs

     End of self-consistent calculation

     Number of k-points >= 100: set verbosity='high' to print the bands.

     the Fermi energy is    16.1848 ev

!    total energy              =    -731.00559677 Ry
     estimated scf accuracy    <       0.00000054 Ry

     convergence has been achieved in   4 iterations

     Forces acting on atoms (cartesian axes, Ry/au):

     atom    1 type  2   force =     0.00090662    0.00020726    0.00036765
     atom    2 type  1   force =    -0.00090662   -0.00020726   -0.00036765

     Total force =     0.001414     Total SCF correction =     0.001675
     SCF correction compared to forces is large: reduce conv_thr to get better values


     Computing stress (Cartesian axis) and pressure

          total   stress  (Ry/bohr**3)                   (kbar)     P=      -61.30
  -0.00042414   0.00000503  -0.00000162          -62.39        0.74       -0.24
   0.00000503  -0.00041496   0.00000881            0.74      -61.04        1.30
  -0.00000162   0.00000881  -0.00041111           -0.24        1.30      -60.48


     Entering Dynamics:    iteration =    19
                           time      =   0.0184 pico-seconds


ATOMIC_POSITIONS (angstrom)
Fe            0.0083022510        0.0021439805        0.0035624448
Se            1.5161291762        1.5204846552        1.5194814366


     kinetic energy (Ekin) =           0.00009628 Ry
     temperature           =          10.13378709 K 
     Ekin + Etot (const)   =        -731.00550049 Ry
     Ions kinetic stress =            0.05 (kbar)
                                      0.12           0.03           0.05
                                      0.03           0.01           0.01
                                      0.05           0.01           0.02



     Linear momentum :   -0.0000000000    0.0000000000    0.0000000000

     Writing config-only to output data dir ./work/try_0/calculation_try_0.save/
     NEW-OLD atomic charge density approx. for the potential

     Check: negative core charge=   -0.000008

     total cpu time spent up to now is      539.8 secs

     Self-consistent Calculation

     iteration #  1     ecut=    60.00 Ry     beta= 0.70
     Davidson diagonalization with overlap
     ethr =  1.00E-06,  avg # of iterations =  3.0

     Threshold (ethr) on eigenvalues was too large:
     Diagonalizing with lowered threshold

     Davidson diagonalization with overlap
     ethr =  3.29E-08,  avg # of iterations =  2.1

     total cpu time spent up to now is      553.3 secs

     total energy              =    -731.00558793 Ry
     estimated scf accuracy    <       0.00001089 Ry

     iteration #  2     ecut=    60.00 Ry     beta= 0.70
     Davidson diagonalization with overlap
     ethr =  3.40E-08,  avg # of iterations =  3.9

     total cpu time spent up to now is      560.9 secs

     total energy              =    -731.00559092 Ry
     estimated scf accuracy    <       0.00019276 Ry

     iteration #  3     ecut=    60.00 Ry     beta= 0.70
     Davidson diagonalization with overlap
     ethr =  3.40E-08,  avg # of iterations =  4.0

     total cpu time spent up to now is      568.4 secs

     End of self-consistent calculation

     Number of k-points >= 100: set verbosity='high' to print the bands.

     the Fermi energy is    16.1811 ev

!    total energy              =    -731.00559158 Ry
     estimated scf accuracy    <       0.00000742 Ry

     convergence has been achieved in   3 iterations

     Forces acting on atoms (cartesian axes, Ry/au):

     atom    1 type  2   force =     0.00102299    0.00022500    0.00043201
     atom    2 type  1   force =    -0.00102299   -0.00022500   -0.00043201

     Total force =     0.001602     Total SCF correction =     0.001057
     SCF correction compared to forces is large: reduce conv_thr to get better values


     Computing stress (Cartesian axis) and pressure

          total   stress  (Ry/bohr**3)                   (kbar)     P=      -51.94
  -0.00036789   0.00000763  -0.00000004          -54.12        1.12       -0.01
   0.00000763  -0.00036049   0.00001607            1.12      -53.03        2.36
  -0.00000004   0.00001607  -0.00033080           -0.01        2.36      -48.66


     Entering Dynamics:    iteration =    20
                           time      =   0.0194 pico-seconds


ATOMIC_POSITIONS (angstrom)
Fe            0.0087542439        0.0022591808        0.0037559304
Se            1.5158095012        1.5204031789        1.5193445925


     kinetic energy (Ekin) =           0.00009800 Ry
     temperature           =          10.31494700 K 
     Ekin + Etot (const)   =        -731.00549359 Ry
     Ions kinetic stress =            0.05 (kbar)
                                      0.12           0.03           0.05
                                      0.03           0.01           0.01
                                      0.05           0.01           0.02



     Linear momentum :   -0.0000000000   -0.0000000000    0.0000000000

     Writing config-only to output data dir ./work/try_0/calculation_try_0.save/
     NEW-OLD atomic charge density approx. for the potential

     Check: negative core charge=   -0.000008

     total cpu time spent up to now is      570.8 secs

     Self-consistent Calculation

     iteration #  1     ecut=    60.00 Ry     beta= 0.70
     Davidson diagonalization with overlap
     ethr =  1.00E-06,  avg # of iterations =  3.0

     total cpu time spent up to now is      578.5 secs

     total energy              =    -731.00544708 Ry
     estimated scf accuracy    <       0.00022938 Ry

     iteration #  2     ecut=    60.00 Ry     beta= 0.70
     Davidson diagonalization with overlap
     ethr =  7.17E-07,  avg # of iterations =  4.1

     total cpu time spent up to now is      586.5 secs

     total energy              =    -731.00495317 Ry
     estimated scf accuracy    <       0.00588047 Ry

     iteration #  3     ecut=    60.00 Ry     beta= 0.70
     Davidson diagonalization with overlap
     ethr =  7.17E-07,  avg # of iterations =  4.0

     total cpu time spent up to now is      594.2 secs

     total energy              =    -731.00559934 Ry
     estimated scf accuracy    <       0.00002041 Ry

     iteration #  4     ecut=    60.00 Ry     beta= 0.70
     Davidson diagonalization with overlap
     ethr =  6.38E-08,  avg # of iterations =  1.4

     total cpu time spent up to now is      599.7 secs

     End of self-consistent calculation

     Number of k-points >= 100: set verbosity='high' to print the bands.

     the Fermi energy is    16.1849 ev

!    total energy              =    -731.00559969 Ry
     estimated scf accuracy    <       0.00000083 Ry

     convergence has been achieved in   4 iterations

     Forces acting on atoms (cartesian axes, Ry/au):

     atom    1 type  2   force =     0.00099133    0.00022397    0.00042377
     atom    2 type  1   force =    -0.00099133   -0.00022397   -0.00042377

     Total force =     0.001557     Total SCF correction =     0.001690
     SCF correction compared to forces is large: reduce conv_thr to get better values


     Computing stress (Cartesian axis) and pressure

          total   stress  (Ry/bohr**3)                   (kbar)     P=      -61.55
  -0.00041702   0.00000064  -0.00000086          -61.35        0.09       -0.13
   0.00000064  -0.00042051   0.00001159            0.09      -61.86        1.71
  -0.00000086   0.00001159  -0.00041776           -0.13        1.71      -61.46


     Entering Dynamics:    iteration =    21
                           time      =   0.0203 pico-seconds


ATOMIC_POSITIONS (angstrom)
Fe            0.0092103593        0.0023753126        0.0039511783
Se            1.5154869104        1.5203210439        1.5192065021


     kinetic energy (Ekin) =           0.00009982 Ry
     temperature           =          10.50642231 K 
     Ekin + Etot (const)   =        -731.00549988 Ry
     Ions kinetic stress =            0.05 (kbar)
                                      0.12           0.03           0.05
                                      0.03           0.01           0.01
                                      0.05           0.01           0.02



     Linear momentum :    0.0000000000   -0.0000000000   -0.0000000000

     Writing config-only to output data dir ./work/try_0/calculation_try_0.save/
     NEW-OLD atomic charge density approx. for the potential

     Check: negative core charge=   -0.000008

     total cpu time spent up to now is      602.1 secs

     Self-consistent Calculation

     iteration #  1     ecut=    60.00 Ry     beta= 0.70
     Davidson diagonalization with overlap
     ethr =  1.00E-06,  avg # of iterations =  3.0

     Threshold (ethr) on eigenvalues was too large:
     Diagonalizing with lowered threshold

     Davidson diagonalization with overlap
     ethr =  3.97E-08,  avg # of iterations =  2.0

     total cpu time spent up to now is      615.5 secs

     total energy              =    -731.00559054 Ry
     estimated scf accuracy    <       0.00001307 Ry

     iteration #  2     ecut=    60.00 Ry     beta= 0.70
     Davidson diagonalization with overlap
     ethr =  4.08E-08,  avg # of iterations =  3.7

     total cpu time spent up to now is      623.2 secs

     total energy              =    -731.00559144 Ry
     estimated scf accuracy    <       0.00019697 Ry

     iteration #  3     ecut=    60.00 Ry     beta= 0.70
     Davidson diagonalization with overlap
     ethr =  4.08E-08,  avg # of iterations =  4.0

     total cpu time spent up to now is      631.3 secs

     total energy              =    -731.00559723 Ry
     estimated scf accuracy    <       0.00001213 Ry

     iteration #  4     ecut=    60.00 Ry     beta= 0.70
     Davidson diagonalization with overlap
     ethr =  3.79E-08,  avg # of iterations =  1.0

     total cpu time spent up to now is      636.8 secs

     End of self-consistent calculation

     Number of k-points >= 100: set verbosity='high' to print the bands.

     the Fermi energy is    16.1843 ev

!    total energy              =    -731.00560139 Ry
     estimated scf accuracy    <       0.00000037 Ry

     convergence has been achieved in   4 iterations

     Forces acting on atoms (cartesian axes, Ry/au):

     atom    1 type  2   force =     0.00115938    0.00026257    0.00049836
     atom    2 type  1   force =    -0.00115938   -0.00026257   -0.00049836

     Total force =     0.001823     Total SCF correction =     0.000837
     SCF correction compared to forces is large: reduce conv_thr to get better values


     Computing stress (Cartesian axis) and pressure

          total   stress  (Ry/bohr**3)                   (kbar)     P=      -60.17
  -0.00041208   0.00000094   0.00000105          -60.62        0.14        0.15
   0.00000094  -0.00040932   0.00000887            0.14      -60.21        1.31
   0.00000105   0.00000887  -0.00040573            0.15        1.31      -59.68


     Entering Dynamics:    iteration =    22
                           time      =   0.0213 pico-seconds


ATOMIC_POSITIONS (angstrom)
Fe            0.0096712960        0.0024925363        0.0041484987
Se            1.5151609097        1.5202381367        1.5190669459


     kinetic energy (Ekin) =           0.00010178 Ry
     temperature           =          10.71322958 K 
     Ekin + Etot (const)   =        -731.00549961 Ry
     Ions kinetic stress =            0.05 (kbar)
                                      0.13           0.03           0.05
                                      0.03           0.01           0.01
                                      0.05           0.01           0.02



     Linear momentum :    0.0000000000    0.0000000000    0.0000000000

     Writing config-only to output data dir ./work/try_0/calculation_try_0.save/
     NEW-OLD atomic charge density approx. for the potential

     Check: negative core charge=   -0.000008

     total cpu time spent up to now is      639.2 secs

     Self-consistent Calculation

     iteration #  1     ecut=    60.00 Ry     beta= 0.70
     Davidson diagonalization with overlap
     ethr =  1.00E-06,  avg # of iterations =  3.0

     Threshold (ethr) on eigenvalues was too large:
     Diagonalizing with lowered threshold

     Davidson diagonalization with overlap
     ethr =  1.33E-08,  avg # of iterations =  2.8

     total cpu time spent up to now is      653.4 secs

     End of self-consistent calculation

     Number of k-points >= 100: set verbosity='high' to print the bands.

     the Fermi energy is    16.1858 ev

!    total energy              =    -731.00560136 Ry
     estimated scf accuracy    <       0.00000434 Ry

     convergence has been achieved in   1 iterations

     Forces acting on atoms (cartesian axes, Ry/au):

     atom    1 type  2   force =     0.00009990   -0.00003999    0.00006099
     atom    2 type  1   force =    -0.00009990    0.00003999   -0.00006099

     Total force =     0.000175     Total SCF correction =     0.000650
     SCF correction compared to forces is large: reduce conv_thr to get better values


     Computing stress (Cartesian axis) and pressure

          total   stress  (Ry/bohr**3)                   (kbar)     P=      -63.95
  -0.00042885   0.00000876  -0.00000820          -63.09        1.29       -1.21
   0.00000876  -0.00042884  -0.00001611            1.29      -63.08       -2.37
  -0.00000820  -0.00001611  -0.00044638           -1.21       -2.37      -65.67


     Entering Dynamics:    iteration =    23
                           time      =   0.0223 pico-seconds


ATOMIC_POSITIONS (angstrom)
Fe            0.0101326483        0.0026095937        0.0043460727
Se            1.5148346152        1.5201553470        1.5189272103


     kinetic energy (Ekin) =           0.00010293 Ry
     temperature           =          10.83466677 K 
     Ekin + Etot (const)   =        -731.00549842 Ry
     Ions kinetic stress =            0.05 (kbar)
                                      0.13           0.03           0.05
                                      0.03           0.01           0.01
                                      0.05           0.01           0.02



     Linear momentum :   -0.0000000000    0.0000000000    0.0000000000

     Writing config-only to output data dir ./work/try_0/calculation_try_0.save/
     NEW-OLD atomic charge density approx. for the potential

     Check: negative core charge=   -0.000008

     total cpu time spent up to now is      655.8 secs

     Self-consistent Calculation

     iteration #  1     ecut=    60.00 Ry     beta= 0.70
     Davidson diagonalization with overlap
     ethr =  1.00E-06,  avg # of iterations =  3.0

     total cpu time spent up to now is      663.2 secs

     total energy              =    -731.00555202 Ry
     estimated scf accuracy    <       0.00006626 Ry

     iteration #  2     ecut=    60.00 Ry     beta= 0.70
     Davidson diagonalization with overlap
     ethr =  2.07E-07,  avg # of iterations =  4.0

     total cpu time spent up to now is      670.9 secs

     total energy              =    -731.00549474 Ry
     estimated scf accuracy    <       0.00141589 Ry

     iteration #  3     ecut=    60.00 Ry     beta= 0.70
     Davidson diagonalization with overlap
     ethr =  2.07E-07,  avg # of iterations =  4.0

     total cpu time spent up to now is      678.6 secs

     total energy              =    -731.00559967 Ry
     estimated scf accuracy    <       0.00001691 Ry

     iteration #  4     ecut=    60.00 Ry     beta= 0.70
     Davidson diagonalization with overlap
     ethr =  5.29E-08,  avg # of iterations =  1.1

     total cpu time spent up to now is      684.0 secs

     End of self-consistent calculation

     Number of k-points >= 100: set verbosity='high' to print the bands.

     the Fermi energy is    16.1841 ev

!    total energy              =    -731.00560465 Ry
     estimated scf accuracy    <       0.00000101 Ry

     convergence has been achieved in   4 iterations

     Forces acting on atoms (cartesian axes, Ry/au):

     atom    1 type  2   force =     0.00113610    0.00022909    0.00047569
     atom    2 type  1   force =    -0.00113610   -0.00022909   -0.00047569

     Total force =     0.001772     Total SCF correction =     0.001568
     SCF correction compared to forces is large: reduce conv_thr to get better values


     Computing stress (Cartesian axis) and pressure

          total   stress  (Ry/bohr**3)                   (kbar)     P=      -59.34
  -0.00040855   0.00000415  -0.00000038          -60.10        0.61       -0.06
   0.00000415  -0.00040894   0.00000454            0.61      -60.16        0.67
  -0.00000038   0.00000454  -0.00039265           -0.06        0.67      -57.76


     Entering Dynamics:    iteration =    24
                           time      =   0.0232 pico-seconds


ATOMIC_POSITIONS (angstrom)
Fe            0.0105987251        0.0027276037        0.0045456250
Se            1.5145049792        1.5200718836        1.5187860756


     kinetic energy (Ekin) =           0.00010406 Ry
     temperature           =          10.95352655 K 
     Ekin + Etot (const)   =        -731.00550059 Ry
[...]
     ethr =  4.08E-08,  avg # of iterations =  3.7

     total cpu time spent up to now is      714.1 secs

     total energy              =    -731.00560929 Ry
     estimated scf accuracy    <       0.00002522 Ry

     iteration #  4     ecut=    60.00 Ry     beta= 0.70
     Davidson diagonalization with overlap
     ethr =  4.08E-08,  avg # of iterations =  2.0

     total cpu time spent up to now is      720.0 secs

     End of self-consistent calculation

     Number of k-points >= 100: set verbosity='high' to print the bands.

     the Fermi energy is    16.1843 ev

!    total energy              =    -731.00560699 Ry
     estimated scf accuracy    <       0.00000057 Ry

     convergence has been achieved in   4 iterations

     Forces acting on atoms (cartesian axes, Ry/au):

     atom    1 type  2   force =     0.00134634    0.00028037    0.00056488
     atom    2 type  1   force =    -0.00134634   -0.00028037   -0.00056488

     Total force =     0.002103     Total SCF correction =     0.000859
     SCF correction compared to forces is large: reduce conv_thr to get better values


     Computing stress (Cartesian axis) and pressure

          total   stress  (Ry/bohr**3)                   (kbar)     P=      -61.43
  -0.00042541   0.00000222   0.00000102          -62.58        0.33        0.15
   0.00000222  -0.00041804   0.00000953            0.33      -61.50        1.40
   0.00000102   0.00000953  -0.00040936            0.15        1.40      -60.22


     Entering Dynamics:    iteration =    25
                           time      =   0.0242 pico-seconds


ATOMIC_POSITIONS (angstrom)
Fe            0.0110704008        0.0028467798        0.0047475264
Se            1.5141713833        1.5199875956        1.5186432795


     kinetic energy (Ekin) =           0.00010636 Ry
     temperature           =          11.19555994 K 
     Ekin + Etot (const)   =        -731.00550063 Ry
     Ions kinetic stress =            0.05 (kbar)
                                      0.13           0.03           0.06
                                      0.03           0.01           0.01
                                      0.06           0.01           0.02



     Linear momentum :    0.0000000000   -0.0000000000   -0.0000000000

     Writing config-only to output data dir ./work/try_0/calculation_try_0.save/
     NEW-OLD atomic charge density approx. for the potential

     Check: negative core charge=   -0.000008

     total cpu time spent up to now is      722.4 secs

     Self-consistent Calculation

     iteration #  1     ecut=    60.00 Ry     beta= 0.70
     Davidson diagonalization with overlap
     ethr =  1.00E-06,  avg # of iterations =  3.0

     Threshold (ethr) on eigenvalues was too large:
     Diagonalizing with lowered threshold

     Davidson diagonalization with overlap
     ethr =  2.07E-08,  avg # of iterations =  2.3

     total cpu time spent up to now is      736.2 secs

     End of self-consistent calculation

     Number of k-points >= 100: set verbosity='high' to print the bands.

     the Fermi energy is    16.1823 ev

!    total energy              =    -731.00560359 Ry
     estimated scf accuracy    <       0.00000676 Ry

     convergence has been achieved in   1 iterations

     Forces acting on atoms (cartesian axes, Ry/au):

     atom    1 type  2   force =     0.00007259   -0.00006136    0.00004646
     atom    2 type  1   force =    -0.00007259    0.00006136   -0.00004646

     Total force =     0.000150     Total SCF correction =     0.000772
     SCF correction compared to forces is large: reduce conv_thr to get better values


     Computing stress (Cartesian axis) and pressure

          total   stress  (Ry/bohr**3)                   (kbar)     P=      -52.81
  -0.00034348   0.00000608  -0.00000948          -50.53        0.89       -1.39
   0.00000608  -0.00035613  -0.00001834            0.89      -52.39       -2.70
  -0.00000948  -0.00001834  -0.00037733           -1.39       -2.70      -55.51


     Entering Dynamics:    iteration =    26
                           time      =   0.0252 pico-seconds


ATOMIC_POSITIONS (angstrom)
Fe            0.0115423784        0.0029657006        0.0049496209
Se            1.5138375739        1.5199034880        1.5185003467


     kinetic energy (Ekin) =           0.00010768 Ry
     temperature           =          11.33420088 K 
     Ekin + Etot (const)   =        -731.00549591 Ry
     Ions kinetic stress =            0.06 (kbar)
                                      0.13           0.03           0.06
                                      0.03           0.01           0.01
                                      0.06           0.01           0.02



     Linear momentum :   -0.0000000000   -0.0000000000   -0.0000000000

     Writing config-only to output data dir ./work/try_0/calculation_try_0.save/
     NEW-OLD atomic charge density approx. for the potential

     Check: negative core charge=   -0.000008

     total cpu time spent up to now is      738.5 secs

     Self-consistent Calculation

     iteration #  1     ecut=    60.00 Ry     beta= 0.70
     Davidson diagonalization with overlap
     ethr =  1.00E-06,  avg # of iterations =  3.0

     total cpu time spent up to now is      746.1 secs

     total energy              =    -731.00554546 Ry
     estimated scf accuracy    <       0.00010976 Ry

     iteration #  2     ecut=    60.00 Ry     beta= 0.70
     Davidson diagonalization with overlap
     ethr =  3.43E-07,  avg # of iterations =  4.0

     total cpu time spent up to now is      753.8 secs

     total energy              =    -731.00531257 Ry
     estimated scf accuracy    <       0.00241770 Ry

     iteration #  3     ecut=    60.00 Ry     beta= 0.70
     Davidson diagonalization with overlap
     ethr =  3.43E-07,  avg # of iterations =  4.0

     total cpu time spent up to now is      761.4 secs

     total energy              =    -731.00561030 Ry
     estimated scf accuracy    <       0.00002668 Ry

     iteration #  4     ecut=    60.00 Ry     beta= 0.70
     Davidson diagonalization with overlap
     ethr =  8.34E-08,  avg # of iterations =  1.1

     total cpu time spent up to now is      766.7 secs

     End of self-consistent calculation

     Number of k-points >= 100: set verbosity='high' to print the bands.

     the Fermi energy is    16.1846 ev

!    total energy              =    -731.00561130 Ry
     estimated scf accuracy    <       0.00000089 Ry

     convergence has been achieved in   4 iterations

     Forces acting on atoms (cartesian axes, Ry/au):

     atom    1 type  2   force =     0.00132241    0.00027426    0.00052501
     atom    2 type  1   force =    -0.00132241   -0.00027426   -0.00052501

     Total force =     0.002049     Total SCF correction =     0.001586
     SCF correction compared to forces is large: reduce conv_thr to get better values


     Computing stress (Cartesian axis) and pressure

          total   stress  (Ry/bohr**3)                   (kbar)     P=      -60.90
  -0.00041669   0.00000360  -0.00000255          -61.30        0.53       -0.37
   0.00000360  -0.00041964   0.00000518            0.53      -61.73        0.76
  -0.00000255   0.00000518  -0.00040566           -0.37        0.76      -59.67


     Entering Dynamics:    iteration =    27
                           time      =   0.0261 pico-seconds


ATOMIC_POSITIONS (angstrom)
Fe            0.0120198554        0.0030857620        0.0051538988
Se            1.5134998750        1.5198185738        1.5183558698


     kinetic energy (Ekin) =           0.00010897 Ry
     temperature           =          11.47027298 K 
     Ekin + Etot (const)   =        -731.00550233 Ry
     Ions kinetic stress =            0.06 (kbar)
                                      0.14           0.03           0.06
                                      0.03           0.01           0.01
                                      0.06           0.01           0.02



     Linear momentum :    0.0000000000   -0.0000000000   -0.0000000000

     Writing config-only to output data dir ./work/try_0/calculation_try_0.save/
     NEW-OLD atomic charge density approx. for the potential

     Check: negative core charge=   -0.000008

     total cpu time spent up to now is      769.1 secs

     Self-consistent Calculation

     iteration #  1     ecut=    60.00 Ry     beta= 0.70
     Davidson diagonalization with overlap
     ethr =  1.00E-06,  avg # of iterations =  3.0

     Threshold (ethr) on eigenvalues was too large:
     Diagonalizing with lowered threshold

     Davidson diagonalization with overlap
     ethr =  3.97E-08,  avg # of iterations =  2.1

     total cpu time spent up to now is      782.6 secs

     total energy              =    -731.00560333 Ry
     estimated scf accuracy    <       0.00001306 Ry

     iteration #  2     ecut=    60.00 Ry     beta= 0.70
     Davidson diagonalization with overlap
     ethr =  4.08E-08,  avg # of iterations =  3.4

     total cpu time spent up to now is      789.9 secs

     total energy              =    -731.00560526 Ry
     estimated scf accuracy    <       0.00016091 Ry

     iteration #  3     ecut=    60.00 Ry     beta= 0.70
     Davidson diagonalization with overlap
     ethr =  4.08E-08,  avg # of iterations =  3.9

     total cpu time spent up to now is      797.4 secs

     total energy              =    -731.00560837 Ry
     estimated scf accuracy    <       0.00001830 Ry

     iteration #  4     ecut=    60.00 Ry     beta= 0.70
     Davidson diagonalization with overlap
     ethr =  4.08E-08,  avg # of iterations =  1.4

     total cpu time spent up to now is      802.9 secs

     End of self-consistent calculation

     Number of k-points >= 100: set verbosity='high' to print the bands.

     the Fermi energy is    16.1842 ev

!    total energy              =    -731.00561373 Ry
     estimated scf accuracy    <       0.00000030 Ry

     convergence has been achieved in   4 iterations

     Forces acting on atoms (cartesian axes, Ry/au):

     atom    1 type  2   force =     0.00152535    0.00033084    0.00062183
     atom    2 type  1   force =    -0.00152535   -0.00033084   -0.00062183

     Total force =     0.002376     Total SCF correction =     0.000877
     SCF correction compared to forces is large: reduce conv_thr to get better values


     Computing stress (Cartesian axis) and pressure

          total   stress  (Ry/bohr**3)                   (kbar)     P=      -59.86
  -0.00040972   0.00000345  -0.00000089          -60.27        0.51       -0.13
   0.00000345  -0.00040935   0.00000858            0.51      -60.22        1.26
  -0.00000089   0.00000858  -0.00040168           -0.13        1.26      -59.09


     Entering Dynamics:    iteration =    28
                           time      =   0.0271 pico-seconds


ATOMIC_POSITIONS (angstrom)
Fe            0.0125036757        0.0032071992        0.0053607627
Se            1.5131576898        1.5197326865        1.5182095639


     kinetic energy (Ekin) =           0.00011166 Ry
     temperature           =          11.75339162 K 
     Ekin + Etot (const)   =        -731.00550207 Ry
     Ions kinetic stress =            0.06 (kbar)
                                      0.14           0.03           0.06
                                      0.03           0.01           0.01
                                      0.06           0.01           0.03



     Linear momentum :   -0.0000000000   -0.0000000000   -0.0000000000

     Writing config-only to output data dir ./work/try_0/calculation_try_0.save/
     NEW-OLD atomic charge density approx. for the potential

     Check: negative core charge=   -0.000008

     total cpu time spent up to now is      805.3 secs

     Self-consistent Calculation

     iteration #  1     ecut=    60.00 Ry     beta= 0.70
     Davidson diagonalization with overlap
     ethr =  1.00E-06,  avg # of iterations =  3.0

     Threshold (ethr) on eigenvalues was too large:
     Diagonalizing with lowered threshold

     Davidson diagonalization with overlap
     ethr =  1.21E-08,  avg # of iterations =  3.1

     total cpu time spent up to now is      819.6 secs

     End of self-consistent calculation

     Number of k-points >= 100: set verbosity='high' to print the bands.

     the Fermi energy is    16.1861 ev

!    total energy              =    -731.00561440 Ry
     estimated scf accuracy    <       0.00000400 Ry

     convergence has been achieved in   1 iterations

     Forces acting on atoms (cartesian axes, Ry/au):

     atom    1 type  2   force =     0.00043149    0.00003376    0.00019162
     atom    2 type  1   force =    -0.00043149   -0.00003376   -0.00019162

     Total force =     0.000669     Total SCF correction =     0.000738
     SCF correction compared to forces is large: reduce conv_thr to get better values


     Computing stress (Cartesian axis) and pressure

          total   stress  (Ry/bohr**3)                   (kbar)     P=      -65.01
  -0.00043830   0.00000370  -0.00000379          -64.48        0.54       -0.56
   0.00000370  -0.00043320  -0.00001235            0.54      -63.73       -1.82
  -0.00000379  -0.00001235  -0.00045420           -0.56       -1.82      -66.81


     Entering Dynamics:    iteration =    29
                           time      =   0.0281 pico-seconds


ATOMIC_POSITIONS (angstrom)
Fe            0.0129892904        0.0033287768        0.0055684234
Se            1.5128142355        1.5196466999        1.5180626945


     kinetic energy (Ekin) =           0.00011353 Ry
     temperature           =          11.94977750 K 
     Ekin + Etot (const)   =        -731.00550087 Ry
     Ions kinetic stress =            0.06 (kbar)
                                      0.14           0.04           0.06
                                      0.04           0.01           0.02
                                      0.06           0.02           0.03



     Linear momentum :   -0.0000000000   -0.0000000000   -0.0000000000

     Writing config-only to output data dir ./work/try_0/calculation_try_0.save/
     NEW-OLD atomic charge density approx. for the potential

     Check: negative core charge=   -0.000008

     total cpu time spent up to now is      822.0 secs

     Self-consistent Calculation

     iteration #  1     ecut=    60.00 Ry     beta= 0.70
     Davidson diagonalization with overlap
     ethr =  1.00E-06,  avg # of iterations =  3.0

     total cpu time spent up to now is      829.6 secs

     total energy              =    -731.00554738 Ry
     estimated scf accuracy    <       0.00008783 Ry

     iteration #  2     ecut=    60.00 Ry     beta= 0.70
     Davidson diagonalization with overlap
     ethr =  2.74E-07,  avg # of iterations =  4.1

     total cpu time spent up to now is      837.4 secs

     total energy              =    -731.00545665 Ry
     estimated scf accuracy    <       0.00206863 Ry

     iteration #  3     ecut=    60.00 Ry     beta= 0.70
     Davidson diagonalization with overlap
     ethr =  2.74E-07,  avg # of iterations =  4.0

     total cpu time spent up to now is      845.1 secs

     total energy              =    -731.00561404 Ry
     estimated scf accuracy    <       0.00001333 Ry

     iteration #  4     ecut=    60.00 Ry     beta= 0.70
     Davidson diagonalization with overlap
     ethr =  4.17E-08,  avg # of iterations =  1.1

     total cpu time spent up to now is      850.5 secs

     End of self-consistent calculation

     Number of k-points >= 100: set verbosity='high' to print the bands.

     the Fermi energy is    16.1840 ev

!    total energy              =    -731.00561812 Ry
     estimated scf accuracy    <       0.00000078 Ry

     convergence has been achieved in   4 iterations

     Forces acting on atoms (cartesian axes, Ry/au):

     atom    1 type  2   force =     0.00146156    0.00029592    0.00059343
     atom    2 type  1   force =    -0.00146156   -0.00029592   -0.00059343

     Total force =     0.002270     Total SCF correction =     0.001534
     SCF correction compared to forces is large: reduce conv_thr to get better values


     Computing stress (Cartesian axis) and pressure

          total   stress  (Ry/bohr**3)                   (kbar)     P=      -59.64
  -0.00040985   0.00000375  -0.00000201          -60.29        0.55       -0.30
   0.00000375  -0.00041023   0.00000450            0.55      -60.35        0.66
  -0.00000201   0.00000450  -0.00039612           -0.30        0.66      -58.27


     Entering Dynamics:    iteration =    30
                           time      =   0.0290 pico-seconds


ATOMIC_POSITIONS (angstrom)
Fe            0.0134809831        0.0034515849        0.0057785519
Se            1.5124664825        1.5195598429        1.5179140796


     kinetic energy (Ekin) =           0.00011534 Ry
     temperature           =          12.14076994 K 
     Ekin + Etot (const)   =        -731.00550278 Ry
     Ions kinetic stress =            0.06 (kbar)
                                      0.14           0.04           0.06
                                      0.04           0.01           0.02
                                      0.06           0.02           0.03



     Linear momentum :    0.0000000000   -0.0000000000   -0.0000000000

     The maximum number of steps has been reached.

     End of molecular dynamics calculation

     diffusion coefficients :
     atom     1   D =       0.00000013 cm^2/s
     atom     2   D =       0.00000007 cm^2/s

     < D > =       0.00000010 cm^2/s

     Writing all to output data dir ./work/try_0/calculation_try_0.save/

     init_run     :      2.48s CPU      2.58s WALL (       1 calls)
     electrons    :    744.47s CPU    778.34s WALL (      30 calls)
     update_pot   :      4.02s CPU      4.12s WALL (      29 calls)
     forces       :      9.91s CPU     11.03s WALL (      30 calls)
     stress       :     45.53s CPU     46.35s WALL (      30 calls)

     Called by init_run:
     wfcinit      :      1.95s CPU      2.03s WALL (       1 calls)
     potinit      :      0.13s CPU      0.14s WALL (       1 calls)
     hinit0       :      0.35s CPU      0.35s WALL (       1 calls)

     Called by electrons:
     c_bands      :    620.92s CPU    651.43s WALL (     112 calls)
     sum_band     :    109.31s CPU    112.07s WALL (     112 calls)
     v_of_rho     :      0.74s CPU      0.77s WALL (     124 calls)
     newd         :      1.50s CPU      1.94s WALL (     124 calls)
     PAW_pot      :     19.88s CPU     20.21s WALL (     153 calls)
     mix_rho      :      0.05s CPU      0.05s WALL (     112 calls)

     Called by c_bands:
     init_us_2    :     16.89s CPU     17.87s WALL (   81640 calls)
     init_us_2:cp :     16.82s CPU     17.80s WALL (   81640 calls)
     cegterg      :    594.69s CPU    624.18s WALL (   29120 calls)

     Called by *egterg:
     cdiaghg      :     31.73s CPU     32.62s WALL (  101232 calls)
     h_psi        :    477.16s CPU    489.00s WALL (  113712 calls)
     s_psi        :     14.43s CPU     18.29s WALL (  113712 calls)
     g_psi        :      1.52s CPU      1.56s WALL (   84332 calls)

     Called by h_psi:
     h_psi:calbec :     16.68s CPU     21.97s WALL (  113712 calls)
     vloc_psi     :    442.97s CPU    446.42s WALL (  113712 calls)
     add_vuspsi   :     16.09s CPU     18.51s WALL (  113712 calls)

     General routines
     calbec       :     30.76s CPU     39.32s WALL (  189372 calls)
     fft          :      0.59s CPU      0.59s WALL (    2161 calls)
     ffts         :      0.03s CPU      0.03s WALL (     112 calls)
     fftw         :    482.74s CPU    486.20s WALL ( 3520762 calls)

     Parallel routines

     PWSCF        :  13m35.73s CPU  14m12.51s WALL


   This run was terminated on:  17:30:19  30Dec2024            

=------------------------------------------------------------------------------=
   JOB DONE.
=------------------------------------------------------------------------------=
