
     Program PWSCF v.7.1 starts on  2Feb2025 at 22:14:33 

     This program is part of the open-source Quantum ESPRESSO suite
     for quantum simulation of materials; please cite
         "P. Giannozzi et al., J. Phys.:Condens. Matter 21 395502 (2009);
         "P. Giannozzi et al., J. Phys.:Condens. Matter 29 465901 (2017);
         "P. Giannozzi et al., J. Chem. Phys. 152 154105 (2020);
          URL http://www.quantum-espresso.org", 
     in publications or presentations arising from this work. More details at
     http://www.quantum-espresso.org/quote

     Parallel version (MPI), running on     1 processors

     MPI processes distributed on     1 nodes
     0 MiB available memory on the printing compute node when the environment starts

     Waiting for input...
     Reading input from standard input

     Current dimensions of program PWSCF are:
     Max number of different atomic species (ntypx) = 10
     Max number of k-points (npk) =  40000
     Max angular momentum in pseudopotentials (lmaxx) =  4
     Message from routine iosys:
     BEWARE:  force calculation with tetrahedra (not recommanded)
     Message from routine iosys:
     BEWARE: stress calculation with tetrahedra (not recommanded)
     file Fe.pbe-spn-kjpaw_psl.1.0.0.UPF: wavefunction(s)  3P 3D renormalized
     file Se.pbe-dn-kjpaw_psl.1.0.0.UPF: wavefunction(s)  4S 4P 3D renormalized
     Message from routine setup:
     using ibrav=0 with symmetry is DISCOURAGED, use correct ibrav instead

     Subspace diagonalization in iterative solution of the eigenvalue problem:
     a serial algorithm will be used


     G-vector sticks info
     --------------------
     sticks:   dense  smooth     PW     G-vecs:    dense   smooth      PW
     Sum         633     633    193                11981    11981    2103

     Using Slab Decomposition



     bravais-lattice index     =            0
     lattice parameter (alat)  =       5.7523  a.u.
     unit-cell volume          =     190.3406 (a.u.)^3
     number of atoms/cell      =            2
     number of atomic types    =            2
     number of electrons       =        32.00
     number of Kohn-Sham states=           20
     kinetic-energy cutoff     =      60.0000  Ry
     charge density cutoff     =     240.0000  Ry
     scf convergence threshold =      1.0E-08
     mixing beta               =       0.7000
     number of iterations used =            8  plain     mixing
     Exchange-correlation= SLA  PW   PBX  PBC
                           (   1   4   3   4   0   0   0)

     celldm(1)=   5.752330  celldm(2)=   0.000000  celldm(3)=   0.000000
     celldm(4)=   0.000000  celldm(5)=   0.000000  celldm(6)=   0.000000

     crystal axes: (cart. coord. in units of alat)
               a(1) = (   1.000000   0.000000   0.000000 )  
               a(2) = (  -0.000000   1.000000   0.000000 )  
               a(3) = (   0.000000   0.000000   1.000000 )  

     reciprocal axes: (cart. coord. in units 2 pi/alat)
               b(1) = (  1.000000  0.000000 -0.000000 )  
               b(2) = (  0.000000  1.000000  0.000000 )  
               b(3) = (  0.000000 -0.000000  1.000000 )  


     PseudoPot. # 1 for Fe read from file:
     ./pseudo/Fe.pbe-spn-kjpaw_psl.1.0.0.UPF
     MD5 check sum: fc81f059e5c5069939230b1155715ae8
     Pseudo is Projector augmented-wave + core cor, Zval = 16.0
     Generated using &quot;atomic&quot; code by A. Dal Corso  v.6.3
     Shape of augmentation charge: PSQ
     Using radial grid of 1191 points,  6 beta functions with: 
                l(1) =   0
                l(2) =   0
                l(3) =   1
                l(4) =   1
                l(5) =   2
                l(6) =   2
     Q(r) pseudized with 0 coefficients 


     PseudoPot. # 2 for Se read from file:
     ./pseudo/Se.pbe-dn-kjpaw_psl.1.0.0.UPF
     MD5 check sum: ac240dd2bae32a30e0bf3a38df9c8785
     Pseudo is Projector augmented-wave + core cor, Zval = 16.0
     Generated using &quot;atomic&quot; code by A. Dal Corso  v.6.3
     Shape of augmentation charge: PSQ
     Using radial grid of 1211 points,  6 beta functions with: 
                l(1) =   0
                l(2) =   0
                l(3) =   1
                l(4) =   1
                l(5) =   2
                l(6) =   2
     Q(r) pseudized with 0 coefficients 


     atomic species   valence    mass     pseudopotential
        Fe            16.00    55.84500     Fe( 1.00)
        Se            16.00    78.96000     Se( 1.00)

     48 Sym. Ops., with inversion, found



   Cartesian axes

     site n.     atom                  positions (alat units)
         1           Fe  tau(   1) = (   0.0000000   0.0000000   0.0000000  )
         2           Se  tau(   2) = (   0.5000000   0.5000000   0.5000000  )

     number of k points=    10 (tetrahedron method)
                       cart. coord. in units 2pi/alat
        k(    1) = (   0.0000000   0.0000000   0.0000000), wk =   0.0312500
        k(    2) = (   0.0000000   0.0000000   0.2500000), wk =   0.1875000
        k(    3) = (   0.0000000   0.0000000  -0.5000000), wk =   0.0937500
        k(    4) = (   0.0000000   0.2500000   0.2500000), wk =   0.3750000
        k(    5) = (   0.0000000   0.2500000  -0.5000000), wk =   0.3750000
        k(    6) = (   0.0000000  -0.5000000  -0.5000000), wk =   0.0937500
        k(    7) = (   0.2500000   0.2500000   0.2500000), wk =   0.2500000
        k(    8) = (   0.2500000   0.2500000  -0.5000000), wk =   0.3750000
        k(    9) = (   0.2500000  -0.5000000  -0.5000000), wk =   0.1875000
        k(   10) = (  -0.5000000  -0.5000000  -0.5000000), wk =   0.0312500

     Dense  grid:    11981 G-vectors     FFT dimensions: (  30,  30,  30)

     Estimated max dynamical RAM per process >      52.27 MB

     Check: negative core charge=   -0.000008

     Initial potential from superposition of free atoms

     starting charge      31.9995, renormalised to      32.0000
     Starting wfcs are   19 randomized atomic wfcs +    1 random wfcs
     Checking if some PAW data can be deallocated... 

     total cpu time spent up to now is        0.7 secs

     Self-consistent Calculation

     iteration #  1     ecut=    60.00 Ry     beta= 0.70
     Davidson diagonalization with overlap
     ethr =  1.00E-02,  avg # of iterations =  3.2

     total cpu time spent up to now is        1.2 secs

     total energy              =    -730.52675110 Ry
     estimated scf accuracy    <       0.64545341 Ry

     iteration #  2     ecut=    60.00 Ry     beta= 0.70
     Davidson diagonalization with overlap
     ethr =  2.02E-03,  avg # of iterations =  4.2

     total cpu time spent up to now is        1.7 secs

     total energy              =    -729.90011309 Ry
     estimated scf accuracy    <      11.44103658 Ry

     iteration #  3     ecut=    60.00 Ry     beta= 0.70
     Davidson diagonalization with overlap
     ethr =  2.02E-03,  avg # of iterations =  4.1

     total cpu time spent up to now is        2.2 secs

     total energy              =    -731.00848014 Ry
     estimated scf accuracy    <       0.01662581 Ry

     iteration #  4     ecut=    60.00 Ry     beta= 0.70
     Davidson diagonalization with overlap
     ethr =  5.20E-05,  avg # of iterations =  2.7

     total cpu time spent up to now is        2.6 secs

     total energy              =    -731.01044371 Ry
     estimated scf accuracy    <       0.00015573 Ry

     iteration #  5     ecut=    60.00 Ry     beta= 0.70
     Davidson diagonalization with overlap
     ethr =  4.87E-07,  avg # of iterations =  3.9

     total cpu time spent up to now is        3.1 secs

     total energy              =    -731.01044195 Ry
     estimated scf accuracy    <       0.00002445 Ry

     iteration #  6     ecut=    60.00 Ry     beta= 0.70
     Davidson diagonalization with overlap
     ethr =  7.64E-08,  avg # of iterations =  2.2

     total cpu time spent up to now is        3.5 secs

     total energy              =    -731.01048517 Ry
     estimated scf accuracy    <       0.00000250 Ry

     iteration #  7     ecut=    60.00 Ry     beta= 0.70
     Davidson diagonalization with overlap
     ethr =  7.80E-09,  avg # of iterations =  1.8

     total cpu time spent up to now is        3.8 secs

     total energy              =    -731.01047222 Ry
     estimated scf accuracy    <       0.00000004 Ry

     iteration #  8     ecut=    60.00 Ry     beta= 0.70
     Davidson diagonalization with overlap
     ethr =  1.36E-10,  avg # of iterations =  3.6

     total cpu time spent up to now is        4.3 secs

     total energy              =    -731.01046878 Ry
     estimated scf accuracy    <       0.00000009 Ry

     iteration #  9     ecut=    60.00 Ry     beta= 0.70
     Davidson diagonalization with overlap
     ethr =  1.36E-10,  avg # of iterations =  3.0

     total cpu time spent up to now is        4.7 secs

     End of self-consistent calculation

          k = 0.0000 0.0000 0.0000 (  1503 PWs)   bands (ev):

   -70.4089 -36.5028 -36.5028 -36.5028 -32.8912 -32.8912 -32.8797 -32.8797
   -32.8797  -0.5207  13.8456  13.8456  14.8607  14.8607  14.8607  15.7586
    15.7586  15.7586  19.3315  23.7297

          k = 0.0000 0.0000 0.2500 (  1482 PWs)   bands (ev):

   -70.4077 -36.5188 -36.5015 -36.5015 -32.8909 -32.8858 -32.8804 -32.8804
   -32.8792   0.2045  10.1611  13.9864  13.9864  14.1122  15.5024  15.8086
    17.3113  17.3113  21.1448  23.5171

          k = 0.0000 0.0000-0.5000 (  1510 PWs)   bands (ev):

   -70.4069 -36.5351 -36.5006 -36.5006 -32.8911 -32.8815 -32.8815 -32.8806
   -32.8791   1.2601   7.4286  13.5619  13.5619  14.4073  15.8592  16.3590
    18.8130  18.8130  22.0877  23.2393

          k = 0.0000 0.2500 0.2500 (  1492 PWs)   bands (ev):

   -70.4068 -36.5178 -36.5169 -36.5003 -32.8883 -32.8832 -32.8818 -32.8808
   -32.8802   0.8697  10.5140  11.0560  14.1563  14.5970  15.4464  16.0203
    16.1843  17.8350  22.2325  23.5679

          k = 0.0000 0.2500-0.5000 (  1498 PWs)   bands (ev):

   -70.4058 -36.5330 -36.5159 -36.4990 -32.8875 -32.8832 -32.8817 -32.8807
   -32.8785   1.8052   8.2863  11.6145  14.1628  14.4421  15.4723  16.3123
    16.5673  18.1843  20.0185  23.9016

          k = 0.0000-0.5000-0.5000 (  1492 PWs)   bands (ev):

   -70.4048 -36.5311 -36.5311 -36.4973 -32.8855 -32.8850 -32.8820 -32.8820
   -32.8752   2.5285   9.6301   9.6301  13.5808  15.1358  15.1358  15.9055
    16.3525  17.1554  18.2204  26.7442

          k = 0.2500 0.2500 0.2500 (  1499 PWs)   bands (ev):

   -70.4058 -36.5163 -36.5158 -36.5158 -32.8831 -32.8831 -32.8821 -32.8816
   -32.8816   1.5098  11.2289  11.2289  11.4517  15.0492  15.0492  15.8741
    16.9232  16.9232  21.9976  24.2637

          k = 0.2500 0.2500-0.5000 (  1488 PWs)   bands (ev):

   -70.4047 -36.5315 -36.5145 -36.5143 -32.8835 -32.8828 -32.8823 -32.8816
   -32.8777   2.4023   8.9310  11.3876  12.7920  14.9371  15.0342  15.4781
    16.4489  18.0579  20.6084  21.3097

          k = 0.2500-0.5000-0.5000 (  1496 PWs)   bands (ev):

   -70.4038 -36.5300 -36.5300 -36.5131 -32.8841 -32.8827 -32.8827 -32.8802
   -32.8753   3.2221   9.7547   9.7547  12.4407  14.6560  15.7597  15.7597
    16.3694  17.8603  18.2261  22.2020

          k =-0.5000-0.5000-0.5000 (  1472 PWs)   bands (ev):

   -70.4026 -36.5287 -36.5287 -36.5287 -32.8831 -32.8831 -32.8831 -32.8748
   -32.8748   4.2513   9.8703   9.8703   9.8703  16.3864  16.3864  17.9841
    17.9841  17.9841  18.0265  18.0265

     the Fermi energy is    16.2991 ev

!    total energy              =    -731.01047065 Ry
     total all-electron energy =     -7405.679976 Ry
     estimated scf accuracy    <          3.4E-09 Ry

     The total energy is the sum of the following terms:
     one-electron contribution =    -285.88432949 Ry
     hartree contribution      =     158.74549491 Ry
     xc contribution           =     -56.25526483 Ry
     ewald contribution        =    -323.91874127 Ry
     one-center paw contrib.   =    -223.69762998 Ry

     convergence has been achieved in   9 iterations

     Forces acting on atoms (cartesian axes, Ry/au):

     atom    1 type  1   force =     0.00000000    0.00000000    0.00000000
     atom    2 type  2   force =     0.00000000    0.00000000    0.00000000

     Total force =     0.000000     Total SCF correction =     0.000000


     Computing stress (Cartesian axis) and pressure

          total   stress  (Ry/bohr**3)                   (kbar)     P=      -87.95
  -0.00059785   0.00000000   0.00000000          -87.95        0.00        0.00
   0.00000000  -0.00059785   0.00000000            0.00      -87.95        0.00
   0.00000000   0.00000000  -0.00059785            0.00        0.00      -87.95


     Writing all to output data dir ./work/calculation.save/

     init_run     :      0.56s CPU      0.59s WALL (       1 calls)
     electrons    :      3.78s CPU      3.99s WALL (       1 calls)
     forces       :      0.04s CPU      0.04s WALL (       1 calls)
     stress       :      0.21s CPU      0.21s WALL (       1 calls)

     Called by init_run:
     wfcinit      :      0.07s CPU      0.08s WALL (       1 calls)
     potinit      :      0.13s CPU      0.14s WALL (       1 calls)
     hinit0       :      0.34s CPU      0.34s WALL (       1 calls)

     Called by electrons:
     c_bands      :      1.94s CPU      2.05s WALL (       9 calls)
     sum_band     :      0.49s CPU      0.53s WALL (       9 calls)
     v_of_rho     :      0.06s CPU      0.06s WALL (      10 calls)
     newd         :      0.12s CPU      0.16s WALL (      10 calls)
     PAW_pot      :      1.29s CPU      1.31s WALL (      10 calls)
     mix_rho      :      0.01s CPU      0.01s WALL (       9 calls)

     Called by c_bands:
     init_us_2    :      0.04s CPU      0.05s WALL (     210 calls)
     init_us_2:cp :      0.04s CPU      0.05s WALL (     210 calls)
     cegterg      :      1.86s CPU      1.97s WALL (      90 calls)

     Called by *egterg:
     cdiaghg      :      0.10s CPU      0.11s WALL (     377 calls)
     h_psi        :      1.52s CPU      1.56s WALL (     387 calls)
     s_psi        :      0.05s CPU      0.06s WALL (     387 calls)
     g_psi        :      0.00s CPU      0.00s WALL (     287 calls)

     Called by h_psi:
     h_psi:calbec :      0.06s CPU      0.07s WALL (     387 calls)
     vloc_psi     :      1.41s CPU      1.42s WALL (     387 calls)
     add_vuspsi   :      0.05s CPU      0.06s WALL (     387 calls)

     General routines
     calbec       :      0.08s CPU      0.10s WALL (     527 calls)
     fft          :      0.04s CPU      0.04s WALL (     135 calls)
     ffts         :      0.00s CPU      0.00s WALL (       9 calls)
     fftw         :      1.52s CPU      1.53s WALL (   11352 calls)

     Parallel routines

     PWSCF        :      4.73s CPU      4.99s WALL


   This run was terminated on:  22:14:38   2Feb2025            

=------------------------------------------------------------------------------=
   JOB DONE.
=------------------------------------------------------------------------------=
