
     Program PWSCF v.7.1 starts on 23Nov2024 at 18:35:42 

     This program is part of the open-source Quantum ESPRESSO suite
     for quantum simulation of materials; please cite
         "P. Giannozzi et al., J. Phys.:Condens. Matter 21 395502 (2009);
         "P. Giannozzi et al., J. Phys.:Condens. Matter 29 465901 (2017);
         "P. Giannozzi et al., J. Chem. Phys. 152 154105 (2020);
          URL http://www.quantum-espresso.org", 
     in publications or presentations arising from this work. More details at
     http://www.quantum-espresso.org/quote

     Parallel version (MPI), running on     1 processors

     MPI processes distributed on     1 nodes
     0 MiB available memory on the printing compute node when the environment starts

     Waiting for input...
     Reading input from standard input
     Message from routine read_cards :
     DEPRECATED: no units specified in ATOMIC_POSITIONS card
     Message from routine read_cards :
     ATOMIC_POSITIONS: units set to alat

     Current dimensions of program PWSCF are:
     Max number of different atomic species (ntypx) = 10
     Max number of k-points (npk) =  40000
     Max angular momentum in pseudopotentials (lmaxx) =  4
     Message from routine iosys:
     BEWARE:  force calculation with tetrahedra (not recommanded)
     Message from routine iosys:
     BEWARE: stress calculation with tetrahedra (not recommanded)
     file Fe.pbe-spn-kjpaw_psl.1.0.0.UPF: wavefunction(s)  3P 3D renormalized
     file Se.pbe-dn-kjpaw_psl.1.0.0.UPF: wavefunction(s)  4S 4P 3D renormalized

     Subspace diagonalization in iterative solution of the eigenvalue problem:
     a serial algorithm will be used


     G-vector sticks info
     --------------------
     sticks:   dense  smooth     PW     G-vecs:    dense   smooth      PW
     Sum         401     317    109                 5887     4169     847

     Using Slab Decomposition



     bravais-lattice index     =            0
     lattice parameter (alat)  =       5.7523  a.u.
     unit-cell volume          =     190.3406 (a.u.)^3
     number of atoms/cell      =            2
     number of atomic types    =            2
     number of electrons       =        32.00
     number of Kohn-Sham states=           20
     kinetic-energy cutoff     =      30.0000  Ry
     charge density cutoff     =     150.0000  Ry
     scf convergence threshold =      1.0E-08
     mixing beta               =       0.7000
     number of iterations used =            8  plain     mixing
     Exchange-correlation= SLA  PW   PBX  PBC
                           (   1   4   3   4   0   0   0)

     celldm(1)=   5.752330  celldm(2)=   0.000000  celldm(3)=   0.000000
     celldm(4)=   0.000000  celldm(5)=   0.000000  celldm(6)=   0.000000

     crystal axes: (cart. coord. in units of alat)
               a(1) = (   1.000000   0.000000   0.000000 )  
               a(2) = (  -0.000000   1.000000   0.000000 )  
               a(3) = (   0.000000   0.000000   1.000000 )  

     reciprocal axes: (cart. coord. in units 2 pi/alat)
               b(1) = (  1.000000  0.000000 -0.000000 )  
               b(2) = (  0.000000  1.000000  0.000000 )  
               b(3) = (  0.000000 -0.000000  1.000000 )  


     PseudoPot. # 1 for Fe read from file:
     ../pseudo/Fe.pbe-spn-kjpaw_psl.1.0.0.UPF
     MD5 check sum: fc81f059e5c5069939230b1155715ae8
     Pseudo is Projector augmented-wave + core cor, Zval = 16.0
     Generated using &quot;atomic&quot; code by A. Dal Corso  v.6.3
     Shape of augmentation charge: PSQ
     Using radial grid of 1191 points,  6 beta functions with: 
                l(1) =   0
                l(2) =   0
                l(3) =   1
                l(4) =   1
                l(5) =   2
                l(6) =   2
     Q(r) pseudized with 0 coefficients 


     PseudoPot. # 2 for Se read from file:
     ../pseudo/Se.pbe-dn-kjpaw_psl.1.0.0.UPF
     MD5 check sum: ac240dd2bae32a30e0bf3a38df9c8785
     Pseudo is Projector augmented-wave + core cor, Zval = 16.0
     Generated using &quot;atomic&quot; code by A. Dal Corso  v.6.3
     Shape of augmentation charge: PSQ
     Using radial grid of 1211 points,  6 beta functions with: 
                l(1) =   0
                l(2) =   0
                l(3) =   1
                l(4) =   1
                l(5) =   2
                l(6) =   2
     Q(r) pseudized with 0 coefficients 


     atomic species   valence    mass     pseudopotential
        Fe            16.00    55.84500     Fe( 1.00)
        Se            16.00    78.96000     Se( 1.00)

     No symmetry found



   Cartesian axes

     site n.     atom                  positions (alat units)
         1           Fe  tau(   1) = (   0.0000000   0.0000000   0.0000000  )
         2           Se  tau(   2) = (   0.5000000   0.5000000   0.5000000  )

     number of k points=    64 (tetrahedron method)
                       cart. coord. in units 2pi/alat
        k(    1) = (   0.0000000   0.0000000   0.0000000), wk =   0.0312500
        k(    2) = (   0.0000000   0.0000000   0.2500000), wk =   0.0312500
        k(    3) = (   0.0000000   0.0000000  -0.5000000), wk =   0.0312500
        k(    4) = (   0.0000000   0.0000000  -0.2500000), wk =   0.0312500
        k(    5) = (   0.0000000   0.2500000   0.0000000), wk =   0.0312500
        k(    6) = (   0.0000000   0.2500000   0.2500000), wk =   0.0312500
        k(    7) = (   0.0000000   0.2500000  -0.5000000), wk =   0.0312500
        k(    8) = (   0.0000000   0.2500000  -0.2500000), wk =   0.0312500
        k(    9) = (   0.0000000  -0.5000000   0.0000000), wk =   0.0312500
        k(   10) = (   0.0000000  -0.5000000   0.2500000), wk =   0.0312500
        k(   11) = (   0.0000000  -0.5000000  -0.5000000), wk =   0.0312500
        k(   12) = (   0.0000000  -0.5000000  -0.2500000), wk =   0.0312500
        k(   13) = (   0.0000000  -0.2500000   0.0000000), wk =   0.0312500
        k(   14) = (   0.0000000  -0.2500000   0.2500000), wk =   0.0312500
        k(   15) = (   0.0000000  -0.2500000  -0.5000000), wk =   0.0312500
        k(   16) = (   0.0000000  -0.2500000  -0.2500000), wk =   0.0312500
        k(   17) = (   0.2500000   0.0000000   0.0000000), wk =   0.0312500
        k(   18) = (   0.2500000   0.0000000   0.2500000), wk =   0.0312500
        k(   19) = (   0.2500000   0.0000000  -0.5000000), wk =   0.0312500
        k(   20) = (   0.2500000   0.0000000  -0.2500000), wk =   0.0312500
        k(   21) = (   0.2500000   0.2500000   0.0000000), wk =   0.0312500
        k(   22) = (   0.2500000   0.2500000   0.2500000), wk =   0.0312500
        k(   23) = (   0.2500000   0.2500000  -0.5000000), wk =   0.0312500
        k(   24) = (   0.2500000   0.2500000  -0.2500000), wk =   0.0312500
        k(   25) = (   0.2500000  -0.5000000   0.0000000), wk =   0.0312500
        k(   26) = (   0.2500000  -0.5000000   0.2500000), wk =   0.0312500
        k(   27) = (   0.2500000  -0.5000000  -0.5000000), wk =   0.0312500
        k(   28) = (   0.2500000  -0.5000000  -0.2500000), wk =   0.0312500
        k(   29) = (   0.2500000  -0.2500000   0.0000000), wk =   0.0312500
        k(   30) = (   0.2500000  -0.2500000   0.2500000), wk =   0.0312500
        k(   31) = (   0.2500000  -0.2500000  -0.5000000), wk =   0.0312500
        k(   32) = (   0.2500000  -0.2500000  -0.2500000), wk =   0.0312500
        k(   33) = (  -0.5000000   0.0000000   0.0000000), wk =   0.0312500
        k(   34) = (  -0.5000000   0.0000000   0.2500000), wk =   0.0312500
        k(   35) = (  -0.5000000   0.0000000  -0.5000000), wk =   0.0312500
        k(   36) = (  -0.5000000   0.0000000  -0.2500000), wk =   0.0312500
        k(   37) = (  -0.5000000   0.2500000   0.0000000), wk =   0.0312500
        k(   38) = (  -0.5000000   0.2500000   0.2500000), wk =   0.0312500
        k(   39) = (  -0.5000000   0.2500000  -0.5000000), wk =   0.0312500
        k(   40) = (  -0.5000000   0.2500000  -0.2500000), wk =   0.0312500
        k(   41) = (  -0.5000000  -0.5000000   0.0000000), wk =   0.0312500
        k(   42) = (  -0.5000000  -0.5000000   0.2500000), wk =   0.0312500
        k(   43) = (  -0.5000000  -0.5000000  -0.5000000), wk =   0.0312500
        k(   44) = (  -0.5000000  -0.5000000  -0.2500000), wk =   0.0312500
        k(   45) = (  -0.5000000  -0.2500000   0.0000000), wk =   0.0312500
        k(   46) = (  -0.5000000  -0.2500000   0.2500000), wk =   0.0312500
        k(   47) = (  -0.5000000  -0.2500000  -0.5000000), wk =   0.0312500
        k(   48) = (  -0.5000000  -0.2500000  -0.2500000), wk =   0.0312500
        k(   49) = (  -0.2500000   0.0000000   0.0000000), wk =   0.0312500
        k(   50) = (  -0.2500000   0.0000000   0.2500000), wk =   0.0312500
        k(   51) = (  -0.2500000   0.0000000  -0.5000000), wk =   0.0312500
        k(   52) = (  -0.2500000   0.0000000  -0.2500000), wk =   0.0312500
        k(   53) = (  -0.2500000   0.2500000   0.0000000), wk =   0.0312500
        k(   54) = (  -0.2500000   0.2500000   0.2500000), wk =   0.0312500
        k(   55) = (  -0.2500000   0.2500000  -0.5000000), wk =   0.0312500
        k(   56) = (  -0.2500000   0.2500000  -0.2500000), wk =   0.0312500
        k(   57) = (  -0.2500000  -0.5000000   0.0000000), wk =   0.0312500
        k(   58) = (  -0.2500000  -0.5000000   0.2500000), wk =   0.0312500
        k(   59) = (  -0.2500000  -0.5000000  -0.5000000), wk =   0.0312500
        k(   60) = (  -0.2500000  -0.5000000  -0.2500000), wk =   0.0312500
        k(   61) = (  -0.2500000  -0.2500000   0.0000000), wk =   0.0312500
        k(   62) = (  -0.2500000  -0.2500000   0.2500000), wk =   0.0312500
        k(   63) = (  -0.2500000  -0.2500000  -0.5000000), wk =   0.0312500
        k(   64) = (  -0.2500000  -0.2500000  -0.2500000), wk =   0.0312500

     Dense  grid:     5887 G-vectors     FFT dimensions: (  24,  24,  24)

     Smooth grid:     4169 G-vectors     FFT dimensions: (  24,  24,  24)

     Estimated max dynamical RAM per process >      34.35 MB

     Check: negative core charge=   -0.000042

     Initial potential from superposition of free atoms

     starting charge      31.9995, renormalised to      32.0000
     Starting wfcs are   19 randomized atomic wfcs +    1 random wfcs
     Checking if some PAW data can be deallocated... 

     total cpu time spent up to now is        0.7 secs

     Self-consistent Calculation

     iteration #  1     ecut=    30.00 Ry     beta= 0.70
     Davidson diagonalization with overlap
     ethr =  1.00E-02,  avg # of iterations =  4.5

     negative rho (up, down):  8.439E-03 0.000E+00

     total cpu time spent up to now is        1.7 secs

     total energy              =    -727.14740637 Ry
     estimated scf accuracy    <       0.70646529 Ry

     iteration #  2     ecut=    30.00 Ry     beta= 0.70
     Davidson diagonalization with overlap
     ethr =  2.21E-03,  avg # of iterations =  3.0

     negative rho (up, down):  7.274E-03 0.000E+00

     total cpu time spent up to now is        2.7 secs

     total energy              =    -726.43497969 Ry
     estimated scf accuracy    <       6.97683558 Ry

     iteration #  3     ecut=    30.00 Ry     beta= 0.70
     Davidson diagonalization with overlap
     ethr =  2.21E-03,  avg # of iterations =  2.9

     negative rho (up, down):  7.856E-03 0.000E+00

     total cpu time spent up to now is        3.5 secs

     total energy              =    -727.41442311 Ry
     estimated scf accuracy    <       0.45453321 Ry

     iteration #  4     ecut=    30.00 Ry     beta= 0.70
     Davidson diagonalization with overlap
     ethr =  1.42E-03,  avg # of iterations =  1.0

     negative rho (up, down):  8.794E-03 0.000E+00

     total cpu time spent up to now is        4.2 secs

     total energy              =    -727.45867411 Ry
     estimated scf accuracy    <       0.00405429 Ry

     iteration #  5     ecut=    30.00 Ry     beta= 0.70
     Davidson diagonalization with overlap
     ethr =  1.27E-05,  avg # of iterations =  2.5

     negative rho (up, down):  8.888E-03 0.000E+00

     total cpu time spent up to now is        5.0 secs

     total energy              =    -727.45952129 Ry
     estimated scf accuracy    <       0.00056848 Ry

     iteration #  6     ecut=    30.00 Ry     beta= 0.70
     Davidson diagonalization with overlap
     ethr =  1.78E-06,  avg # of iterations =  1.8

     negative rho (up, down):  8.913E-03 0.000E+00

     total cpu time spent up to now is        5.7 secs

     total energy              =    -727.45955715 Ry
     estimated scf accuracy    <       0.00040144 Ry

     iteration #  7     ecut=    30.00 Ry     beta= 0.70
     Davidson diagonalization with overlap
     ethr =  1.25E-06,  avg # of iterations =  1.2

     negative rho (up, down):  8.913E-03 0.000E+00

     total cpu time spent up to now is        6.5 secs

     total energy              =    -727.45961569 Ry
     estimated scf accuracy    <       0.00011073 Ry

     iteration #  8     ecut=    30.00 Ry     beta= 0.70
     Davidson diagonalization with overlap
     ethr =  3.46E-07,  avg # of iterations =  1.0

     negative rho (up, down):  8.913E-03 0.000E+00

     total cpu time spent up to now is        7.2 secs

     total energy              =    -727.45961984 Ry
     estimated scf accuracy    <       0.00004356 Ry

     iteration #  9     ecut=    30.00 Ry     beta= 0.70
     Davidson diagonalization with overlap
     ethr =  1.36E-07,  avg # of iterations =  2.0

     negative rho (up, down):  8.914E-03 0.000E+00

     total cpu time spent up to now is        8.0 secs

     total energy              =    -727.45961298 Ry
     estimated scf accuracy    <       0.00008231 Ry

     iteration # 10     ecut=    30.00 Ry     beta= 0.70
     Davidson diagonalization with overlap
     ethr =  1.36E-07,  avg # of iterations =  2.1

     negative rho (up, down):  8.916E-03 0.000E+00

     total cpu time spent up to now is        8.7 secs

     total energy              =    -727.45961072 Ry
     estimated scf accuracy    <       0.00006819 Ry

     iteration # 11     ecut=    30.00 Ry     beta= 0.70
     Davidson diagonalization with overlap
     ethr =  1.36E-07,  avg # of iterations =  2.0

     negative rho (up, down):  8.910E-03 0.000E+00

     total cpu time spent up to now is        9.5 secs

     total energy              =    -727.45957537 Ry
     estimated scf accuracy    <       0.00005367 Ry

     iteration # 12     ecut=    30.00 Ry     beta= 0.70
     Davidson diagonalization with overlap
     ethr =  1.36E-07,  avg # of iterations =  2.3

     negative rho (up, down):  8.908E-03 0.000E+00

     total cpu time spent up to now is       10.3 secs

     total energy              =    -727.45942847 Ry
     estimated scf accuracy    <       0.00014986 Ry

     iteration # 13     ecut=    30.00 Ry     beta= 0.70
     Davidson diagonalization with overlap
     ethr =  1.36E-07,  avg # of iterations =  3.5

     negative rho (up, down):  8.910E-03 0.000E+00

     total cpu time spent up to now is       11.2 secs

     total energy              =    -727.45895548 Ry
     estimated scf accuracy    <       0.00056276 Ry

     iteration # 14     ecut=    30.00 Ry     beta= 0.70
     Davidson diagonalization with overlap
     ethr =  1.36E-07,  avg # of iterations =  4.1

     negative rho (up, down):  8.912E-03 0.000E+00

     total cpu time spent up to now is       12.2 secs

     total energy              =    -727.45715574 Ry
     estimated scf accuracy    <       0.00218560 Ry

     iteration # 15     ecut=    30.00 Ry     beta= 0.70
     Davidson diagonalization with overlap
     ethr =  1.36E-07,  avg # of iterations =  5.9

     negative rho (up, down):  8.914E-03 0.000E+00

     total cpu time spent up to now is       13.4 secs

     total energy              =    -727.44984706 Ry
     estimated scf accuracy    <       0.00959348 Ry

     iteration # 16     ecut=    30.00 Ry     beta= 0.70
     Davidson diagonalization with overlap
     ethr =  1.36E-07,  avg # of iterations =  5.6

     negative rho (up, down):  8.933E-03 0.000E+00

     total cpu time spent up to now is       14.6 secs

     total energy              =    -727.42768614 Ry
     estimated scf accuracy    <       0.05480773 Ry

     iteration # 17     ecut=    30.00 Ry     beta= 0.70
     Davidson diagonalization with overlap
     c_bands:  1 eigenvalues not converged
     c_bands:  1 eigenvalues not converged
     ethr =  1.36E-07,  avg # of iterations =  8.1

     negative rho (up, down):  2.866E-02 0.000E+00

     total cpu time spent up to now is       16.1 secs

     total energy              =    -727.46531826 Ry
     estimated scf accuracy    <       0.30651563 Ry

     iteration # 18     ecut=    30.00 Ry     beta= 0.70
     Davidson diagonalization with overlap
     ethr =  1.36E-07,  avg # of iterations =  6.4

     negative rho (up, down):  4.639E-02 0.000E+00

     total cpu time spent up to now is       17.5 secs

     total energy              =    -727.48041474 Ry
     estimated scf accuracy    <       0.31962545 Ry

     iteration # 19     ecut=    30.00 Ry     beta= 0.70
     Davidson diagonalization with overlap
     ethr =  1.36E-07,  avg # of iterations =  5.1

     negative rho (up, down):  4.933E-02 0.000E+00

     total cpu time spent up to now is       18.6 secs

     total energy              =    -727.48221725 Ry
     estimated scf accuracy    <       0.31427494 Ry

     iteration # 20     ecut=    30.00 Ry     beta= 0.70
     Davidson diagonalization with overlap
     ethr =  1.36E-07,  avg # of iterations =  4.8

     negative rho (up, down):  5.020E-02 0.000E+00

     total cpu time spent up to now is       19.7 secs

     total energy              =    -727.48406581 Ry
     estimated scf accuracy    <       0.31751079 Ry

     iteration # 21     ecut=    30.00 Ry     beta= 0.70
     Davidson diagonalization with overlap
     ethr =  1.36E-07,  avg # of iterations =  4.9

     negative rho (up, down):  5.101E-02 0.000E+00

     total cpu time spent up to now is       20.7 secs

     total energy              =    -727.48654715 Ry
     estimated scf accuracy    <       0.32214232 Ry

     iteration # 22     ecut=    30.00 Ry     beta= 0.70
     Davidson diagonalization with overlap
     ethr =  1.36E-07,  avg # of iterations =  5.0

     negative rho (up, down):  5.213E-02 0.000E+00

     total cpu time spent up to now is       21.8 secs

     total energy              =    -727.48868248 Ry
     estimated scf accuracy    <       0.32972392 Ry

     iteration # 23     ecut=    30.00 Ry     beta= 0.70
     Davidson diagonalization with overlap
     ethr =  1.36E-07,  avg # of iterations =  5.1

     negative rho (up, down):  5.210E-02 0.000E+00

     total cpu time spent up to now is       22.8 secs

     total energy              =    -727.49154184 Ry
     estimated scf accuracy    <       0.33389382 Ry

     iteration # 24     ecut=    30.00 Ry     beta= 0.70
     Davidson diagonalization with overlap
     ethr =  1.36E-07,  avg # of iterations =  5.1

     negative rho (up, down):  5.294E-02 0.000E+00

     total cpu time spent up to now is       23.9 secs

     total energy              =    -727.48869343 Ry
     estimated scf accuracy    <       0.34337086 Ry

     iteration # 25     ecut=    30.00 Ry     beta= 0.70
     Davidson diagonalization with overlap
     ethr =  1.36E-07,  avg # of iterations =  5.3

     negative rho (up, down):  4.519E-02 0.000E+00

     total cpu time spent up to now is       25.0 secs

     total energy              =    -727.44735126 Ry
     estimated scf accuracy    <       0.33789965 Ry

     iteration # 26     ecut=    30.00 Ry     beta= 0.70
     Davidson diagonalization with overlap
     ethr =  1.36E-07,  avg # of iterations =  7.9

     negative rho (up, down):  3.205E-02 0.000E+00

     total cpu time spent up to now is       26.7 secs

     total energy              =    -727.42570044 Ry
     estimated scf accuracy    <       0.28474009 Ry

     iteration # 27     ecut=    30.00 Ry     beta= 0.70
     Davidson diagonalization with overlap
     ethr =  1.36E-07,  avg # of iterations =  8.0

     negative rho (up, down):  4.284E-02 0.000E+00

     total cpu time spent up to now is       28.3 secs

     total energy              =    -727.45338194 Ry
     estimated scf accuracy    <       0.19953692 Ry

     iteration # 28     ecut=    30.00 Ry     beta= 0.70
     Davidson diagonalization with overlap
     ethr =  1.36E-07,  avg # of iterations =  8.2

     negative rho (up, down):  7.553E-02 0.000E+00

     total cpu time spent up to now is       29.9 secs

     total energy              =    -727.44029713 Ry
     estimated scf accuracy    <       0.25308940 Ry

     iteration # 29     ecut=    30.00 Ry     beta= 0.70
     Davidson diagonalization with overlap
     ethr =  1.36E-07,  avg # of iterations =  7.2

     negative rho (up, down):  7.337E-02 0.000E+00

     total cpu time spent up to now is       31.4 secs

     total energy              =    -727.42078341 Ry
     estimated scf accuracy    <       0.20057798 Ry

     iteration # 30     ecut=    30.00 Ry     beta= 0.70
     Davidson diagonalization with overlap
     ethr =  1.36E-07,  avg # of iterations =  7.1

     negative rho (up, down):  4.377E-02 0.000E+00

     total cpu time spent up to now is       32.9 secs

     total energy              =    -727.44811740 Ry
     estimated scf accuracy    <       0.19074801 Ry

     iteration # 31     ecut=    30.00 Ry     beta= 0.70
     Davidson diagonalization with overlap
     ethr =  1.36E-07,  avg # of iterations =  6.0

     negative rho (up, down):  6.486E-02 0.000E+00

     total cpu time spent up to now is       34.4 secs

     total energy              =    -727.36980562 Ry
     estimated scf accuracy    <       0.22043941 Ry

     iteration # 32     ecut=    30.00 Ry     beta= 0.70
     Davidson diagonalization with overlap
     ethr =  1.36E-07,  avg # of iterations =  7.5

     negative rho (up, down):  4.092E-02 0.000E+00

     total cpu time spent up to now is       35.9 secs

     total energy              =    -727.38589207 Ry
     estimated scf accuracy    <       0.23757024 Ry

     iteration # 33     ecut=    30.00 Ry     beta= 0.70
     Davidson diagonalization with overlap
     ethr =  1.36E-07,  avg # of iterations =  6.3

     negative rho (up, down):  4.414E-02 0.000E+00

     total cpu time spent up to now is       37.3 secs

     total energy              =    -727.38517277 Ry
     estimated scf accuracy    <       0.26849010 Ry

     iteration # 34     ecut=    30.00 Ry     beta= 0.70
     Davidson diagonalization with overlap
     ethr =  1.36E-07,  avg # of iterations =  5.6

     negative rho (up, down):  1.087E-01 0.000E+00

     total cpu time spent up to now is       38.6 secs

     total energy              =    -727.21218303 Ry
     estimated scf accuracy    <       0.29303936 Ry

     iteration # 35     ecut=    30.00 Ry     beta= 0.70
     Davidson diagonalization with overlap
     ethr =  1.36E-07,  avg # of iterations =  7.5

     negative rho (up, down):  1.435E-01 0.000E+00

     total cpu time spent up to now is       40.1 secs

     total energy              =    -727.23378505 Ry
     estimated scf accuracy    <       0.38686910 Ry

     iteration # 36     ecut=    30.00 Ry     beta= 0.70
     Davidson diagonalization with overlap
     ethr =  1.36E-07,  avg # of iterations =  7.1

     negative rho (up, down):  1.963E-01 0.000E+00

     total cpu time spent up to now is       41.6 secs

     total energy              =    -727.20456548 Ry
     estimated scf accuracy    <       0.68229333 Ry

     iteration # 37     ecut=    30.00 Ry     beta= 0.70
     Davidson diagonalization with overlap
     ethr =  1.36E-07,  avg # of iterations =  7.4

     negative rho (up, down):  3.857E-02 0.000E+00

     total cpu time spent up to now is       43.1 secs

     total energy              =    -727.25105872 Ry
     estimated scf accuracy    <       0.81549007 Ry

     iteration # 38     ecut=    30.00 Ry     beta= 0.70
     Davidson diagonalization with overlap
     c_bands:  2 eigenvalues not converged
     ethr =  1.36E-07,  avg # of iterations =  7.0

     negative rho (up, down):  3.437E-02 0.000E+00

     total cpu time spent up to now is       44.5 secs

     total energy              =    -727.31023580 Ry
     estimated scf accuracy    <       0.42289896 Ry

     iteration # 39     ecut=    30.00 Ry     beta= 0.70
     Davidson diagonalization with overlap
     ethr =  1.36E-07,  avg # of iterations =  6.7

     negative rho (up, down):  1.683E-02 0.000E+00

     total cpu time spent up to now is       45.9 secs

     total energy              =    -727.34346601 Ry
     estimated scf accuracy    <       0.34570696 Ry

     iteration # 40     ecut=    30.00 Ry     beta= 0.70
     Davidson diagonalization with overlap
     ethr =  1.36E-07,  avg # of iterations =  5.8

     negative rho (up, down):  1.337E-02 0.000E+00

     total cpu time spent up to now is       47.2 secs

     total energy              =    -727.40952721 Ry
     estimated scf accuracy    <       0.27776527 Ry

     iteration # 41     ecut=    30.00 Ry     beta= 0.70
     Davidson diagonalization with overlap
     ethr =  1.36E-07,  avg # of iterations =  6.6

     negative rho (up, down):  2.750E-02 0.000E+00

     total cpu time spent up to now is       48.5 secs

     total energy              =    -727.43498757 Ry
     estimated scf accuracy    <       0.29100184 Ry

     iteration # 42     ecut=    30.00 Ry     beta= 0.70
     Davidson diagonalization with overlap
     ethr =  1.36E-07,  avg # of iterations =  6.5

     negative rho (up, down):  2.847E-02 0.000E+00

     total cpu time spent up to now is       49.9 secs

     total energy              =    -727.41299645 Ry
     estimated scf accuracy    <       0.21704266 Ry

     iteration # 43     ecut=    30.00 Ry     beta= 0.70
     Davidson diagonalization with overlap
     ethr =  1.36E-07,  avg # of iterations =  6.9

     negative rho (up, down):  3.505E-02 0.000E+00

     total cpu time spent up to now is       51.4 secs

     total energy              =    -727.42653482 Ry
     estimated scf accuracy    <       0.18479109 Ry

     iteration # 44     ecut=    30.00 Ry     beta= 0.70
     Davidson diagonalization with overlap
     ethr =  1.36E-07,  avg # of iterations =  7.1

     negative rho (up, down):  1.032E-01 0.000E+00

     total cpu time spent up to now is       52.8 secs

     total energy              =    -727.30212252 Ry
     estimated scf accuracy    <       0.20166709 Ry

     iteration # 45     ecut=    30.00 Ry     beta= 0.70
     Davidson diagonalization with overlap
     ethr =  1.36E-07,  avg # of iterations =  8.6

     negative rho (up, down):  1.659E-01 0.000E+00

     total cpu time spent up to now is       54.5 secs

     total energy              =    -727.32372090 Ry
     estimated scf accuracy    <       0.61059212 Ry

     iteration # 46     ecut=    30.00 Ry     beta= 0.70
     Davidson diagonalization with overlap
     ethr =  1.36E-07,  avg # of iterations =  7.5

     negative rho (up, down):  1.183E-02 0.000E+00

     total cpu time spent up to now is       56.0 secs

     total energy              =    -727.33366006 Ry
     estimated scf accuracy    <       0.99472792 Ry

     iteration # 47     ecut=    30.00 Ry     beta= 0.70
     Davidson diagonalization with overlap
     ethr =  1.36E-07,  avg # of iterations =  8.1

     negative rho (up, down):  1.073E-01 0.000E+00

     total cpu time spent up to now is       57.7 secs

     total energy              =    -727.22005203 Ry
     estimated scf accuracy    <       0.36296953 Ry

     iteration # 48     ecut=    30.00 Ry     beta= 0.70
     Davidson diagonalization with overlap
     ethr =  1.36E-07,  avg # of iterations =  7.6

     negative rho (up, down):  2.804E-01 0.000E+00

     total cpu time spent up to now is       59.3 secs

     total energy              =    -727.13924906 Ry
     estimated scf accuracy    <       0.41969171 Ry

     iteration # 49     ecut=    30.00 Ry     beta= 0.70
     Davidson diagonalization with overlap
     ethr =  1.36E-07,  avg # of iterations =  7.5

     negative rho (up, down):  2.382E-01 0.000E+00

     total cpu time spent up to now is       60.9 secs

     total energy              =    -727.08719654 Ry
     estimated scf accuracy    <       0.86862284 Ry

     iteration # 50     ecut=    30.00 Ry     beta= 0.70
     Davidson diagonalization with overlap
     ethr =  1.36E-07,  avg # of iterations =  5.9

     negative rho (up, down):  2.256E-01 0.000E+00

     total cpu time spent up to now is       62.2 secs

     total energy              =    -727.10162533 Ry
     estimated scf accuracy    <       0.75429968 Ry

     iteration # 51     ecut=    30.00 Ry     beta= 0.70
     Davidson diagonalization with overlap
     ethr =  1.36E-07,  avg # of iterations =  6.2

     negative rho (up, down):  1.120E-01 0.000E+00

     total cpu time spent up to now is       63.6 secs

     total energy              =    -727.06960348 Ry
     estimated scf accuracy    <       0.78614552 Ry

     iteration # 52     ecut=    30.00 Ry     beta= 0.70
     Davidson diagonalization with overlap
     ethr =  1.36E-07,  avg # of iterations =  6.8

     negative rho (up, down):  3.289E-02 0.000E+00

     total cpu time spent up to now is       65.0 secs

     total energy              =    -727.19826340 Ry
     estimated scf accuracy    <       0.44249745 Ry

     iteration # 53     ecut=    30.00 Ry     beta= 0.70
     Davidson diagonalization with overlap
     ethr =  1.36E-07,  avg # of iterations =  6.8

     negative rho (up, down):  2.041E-02 0.000E+00

     total cpu time spent up to now is       66.4 secs

     total energy              =    -727.28499173 Ry
     estimated scf accuracy    <       0.34710241 Ry

     iteration # 54     ecut=    30.00 Ry     beta= 0.70
     Davidson diagonalization with overlap
     ethr =  1.36E-07,  avg # of iterations =  6.6

     negative rho (up, down):  2.395E-02 0.000E+00

     total cpu time spent up to now is       67.8 secs

     total energy              =    -727.26534162 Ry
     estimated scf accuracy    <       0.32612228 Ry

     iteration # 55     ecut=    30.00 Ry     beta= 0.70
     Davidson diagonalization with overlap
     ethr =  1.36E-07,  avg # of iterations =  8.6

     negative rho (up, down):  3.081E-02 0.000E+00

     total cpu time spent up to now is       69.5 secs

     total energy              =    -727.34089241 Ry
     estimated scf accuracy    <       0.38105239 Ry

     iteration # 56     ecut=    30.00 Ry     beta= 0.70
     Davidson diagonalization with overlap
     ethr =  1.36E-07,  avg # of iterations =  6.4

     negative rho (up, down):  1.804E-02 0.000E+00

     total cpu time spent up to now is       70.8 secs

     total energy              =    -727.37903333 Ry
     estimated scf accuracy    <       0.46536219 Ry

     iteration # 57     ecut=    30.00 Ry     beta= 0.70
     Davidson diagonalization with overlap
     ethr =  1.36E-07,  avg # of iterations =  7.1

     negative rho (up, down):  2.529E-02 0.000E+00

     total cpu time spent up to now is       72.2 secs

     total energy              =    -727.44861282 Ry
     estimated scf accuracy    <       0.41992628 Ry

     iteration # 58     ecut=    30.00 Ry     beta= 0.70
     Davidson diagonalization with overlap
     ethr =  1.36E-07,  avg # of iterations =  5.8

     negative rho (up, down):  4.873E-02 0.000E+00

     total cpu time spent up to now is       73.5 secs

     total energy              =    -727.49725446 Ry
     estimated scf accuracy    <       0.49352131 Ry

     iteration # 59     ecut=    30.00 Ry     beta= 0.70
     Davidson diagonalization with overlap
     ethr =  1.36E-07,  avg # of iterations =  5.8

     negative rho (up, down):  1.323E-01 0.000E+00

     total cpu time spent up to now is       74.8 secs

     total energy              =    -727.47049340 Ry
     estimated scf accuracy    <       0.61350268 Ry

     iteration # 60     ecut=    30.00 Ry     beta= 0.70
     Davidson diagonalization with overlap
     ethr =  1.36E-07,  avg # of iterations =  6.7

     negative rho (up, down):  2.954E-02 0.000E+00

     total cpu time spent up to now is       76.2 secs

     total energy              =    -727.52796840 Ry
     estimated scf accuracy    <       0.69242707 Ry

     iteration # 61     ecut=    30.00 Ry     beta= 0.70
     Davidson diagonalization with overlap
     ethr =  1.36E-07,  avg # of iterations =  7.1

     negative rho (up, down):  2.353E-01 0.000E+00

     total cpu time spent up to now is       77.7 secs

     total energy              =    -727.53474042 Ry
     estimated scf accuracy    <       0.70655182 Ry

     iteration # 62     ecut=    30.00 Ry     beta= 0.70
     Davidson diagonalization with overlap
     ethr =  1.36E-07,  avg # of iterations =  7.7

     negative rho (up, down):  1.722E-01 0.000E+00

     total cpu time spent up to now is       79.3 secs

     total energy              =    -727.63381211 Ry
     estimated scf accuracy    <       1.33747581 Ry

     iteration # 63     ecut=    30.00 Ry     beta= 0.70
     Davidson diagonalization with overlap
     ethr =  1.36E-07,  avg # of iterations =  6.2

     negative rho (up, down):  4.014E-01 0.000E+00

     total cpu time spent up to now is       80.7 secs

     total energy              =    -727.77326541 Ry
     estimated scf accuracy    <       1.34851719 Ry

     iteration # 64     ecut=    30.00 Ry     beta= 0.70
     Davidson diagonalization with overlap
     c_bands:  1 eigenvalues not converged
     ethr =  1.36E-07,  avg # of iterations =  7.9

     negative rho (up, down):  2.820E-01 0.000E+00

     total cpu time spent up to now is       82.3 secs

     total energy              =    -727.70501617 Ry
     estimated scf accuracy    <       2.41627784 Ry

     iteration # 65     ecut=    30.00 Ry     beta= 0.70
     Davidson diagonalization with overlap
     ethr =  1.36E-07,  avg # of iterations =  6.6

     negative rho (up, down):  1.456E-01 0.000E+00

     total cpu time spent up to now is       83.7 secs

     total energy              =    -727.61376481 Ry
     estimated scf accuracy    <       2.16327237 Ry

     iteration # 66     ecut=    30.00 Ry     beta= 0.70
     Davidson diagonalization with overlap
     ethr =  1.36E-07,  avg # of iterations =  6.4

     negative rho (up, down):  1.810E-02 0.000E+00

     total cpu time spent up to now is       85.1 secs

     total energy              =    -727.18222405 Ry
     estimated scf accuracy    <       1.61109020 Ry

     iteration # 67     ecut=    30.00 Ry     beta= 0.70
     Davidson diagonalization with overlap
     c_bands:  2 eigenvalues not converged
     ethr =  1.36E-07,  avg # of iterations =  8.9

     negative rho (up, down):  1.340E-02 0.000E+00

     total cpu time spent up to now is       86.9 secs

     total energy              =    -727.45483976 Ry
     estimated scf accuracy    <       0.33307775 Ry

     iteration # 68     ecut=    30.00 Ry     beta= 0.70
     Davidson diagonalization with overlap
     c_bands:  1 eigenvalues not converged
     ethr =  1.36E-07,  avg # of iterations =  8.1

     negative rho (up, down):  3.042E-02 0.000E+00

     total cpu time spent up to now is       88.5 secs

     total energy              =    -727.48779096 Ry
     estimated scf accuracy    <       0.44768911 Ry

     iteration # 69     ecut=    30.00 Ry     beta= 0.70
     Davidson diagonalization with overlap
     ethr =  1.36E-07,  avg # of iterations =  6.4

     negative rho (up, down):  3.339E-02 0.000E+00

     total cpu time spent up to now is       89.8 secs

     total energy              =    -727.47903689 Ry
     estimated scf accuracy    <       0.37355904 Ry

     iteration # 70     ecut=    30.00 Ry     beta= 0.70
     Davidson diagonalization with overlap
     ethr =  1.36E-07,  avg # of iterations =  6.6

     negative rho (up, down):  6.487E-02 0.000E+00

     total cpu time spent up to now is       91.3 secs

     total energy              =    -727.48466893 Ry
     estimated scf accuracy    <       0.46149815 Ry

     iteration # 71     ecut=    30.00 Ry     beta= 0.70
     Davidson diagonalization with overlap
     ethr =  1.36E-07,  avg # of iterations =  6.1

     negative rho (up, down):  5.774E-02 0.000E+00

     total cpu time spent up to now is       92.6 secs

     total energy              =    -727.46576668 Ry
     estimated scf accuracy    <       0.40414311 Ry

     iteration # 72     ecut=    30.00 Ry     beta= 0.70
     Davidson diagonalization with overlap
     ethr =  1.36E-07,  avg # of iterations =  5.9

     negative rho (up, down):  4.163E-02 0.000E+00

     total cpu time spent up to now is       93.9 secs

     total energy              =    -727.49646172 Ry
     estimated scf accuracy    <       0.32777520 Ry

     iteration # 73     ecut=    30.00 Ry     beta= 0.70
     Davidson diagonalization with overlap
     ethr =  1.36E-07,  avg # of iterations =  6.4

     negative rho (up, down):  4.899E-02 0.000E+00

     total cpu time spent up to now is       95.2 secs

     total energy              =    -727.45536690 Ry
     estimated scf accuracy    <       0.50260355 Ry

     iteration # 74     ecut=    30.00 Ry     beta= 0.70
     Davidson diagonalization with overlap
     ethr =  1.36E-07,  avg # of iterations =  7.0

     negative rho (up, down):  8.355E-02 0.000E+00

     total cpu time spent up to now is       96.6 secs

     total energy              =    -727.53189495 Ry
     estimated scf accuracy    <       0.47544861 Ry

     iteration # 75     ecut=    30.00 Ry     beta= 0.70
     Davidson diagonalization with overlap
     ethr =  1.36E-07,  avg # of iterations =  7.8

     negative rho (up, down):  1.866E-01 0.000E+00

     total cpu time spent up to now is       98.2 secs

     total energy              =    -727.43761278 Ry
     estimated scf accuracy    <       0.74027724 Ry

     iteration # 76     ecut=    30.00 Ry     beta= 0.70
     Davidson diagonalization with overlap
     ethr =  1.36E-07,  avg # of iterations =  6.7

     negative rho (up, down):  1.012E-01 0.000E+00

     total cpu time spent up to now is       99.7 secs

     total energy              =    -727.31280666 Ry
     estimated scf accuracy    <       0.52723384 Ry

     iteration # 77     ecut=    30.00 Ry     beta= 0.70
     Davidson diagonalization with overlap
     c_bands:  1 eigenvalues not converged
     ethr =  1.36E-07,  avg # of iterations =  6.9

     negative rho (up, down):  2.495E-02 0.000E+00

     total cpu time spent up to now is      101.2 secs

     total energy              =    -727.35969586 Ry
     estimated scf accuracy    <       0.44548020 Ry

     iteration # 78     ecut=    30.00 Ry     beta= 0.70
     Davidson diagonalization with overlap
     ethr =  1.36E-07,  avg # of iterations =  5.3

     negative rho (up, down):  3.754E-02 0.000E+00

     total cpu time spent up to now is      102.5 secs

     total energy              =    -727.32286661 Ry
     estimated scf accuracy    <       0.39796552 Ry

     iteration # 79     ecut=    30.00 Ry     beta= 0.70
     Davidson diagonalization with overlap
     ethr =  1.36E-07,  avg # of iterations =  6.5

     negative rho (up, down):  9.206E-03 0.000E+00

     total cpu time spent up to now is      103.8 secs

     total energy              =    -727.43526492 Ry
     estimated scf accuracy    <       0.34386337 Ry

     iteration # 80     ecut=    30.00 Ry     beta= 0.70
     Davidson diagonalization with overlap
     ethr =  1.36E-07,  avg # of iterations =  7.8

     negative rho (up, down):  3.205E-02 0.000E+00

     total cpu time spent up to now is      105.5 secs

     total energy              =    -727.53365018 Ry
     estimated scf accuracy    <       0.48509896 Ry

     iteration # 81     ecut=    30.00 Ry     beta= 0.70
     Davidson diagonalization with overlap
     ethr =  1.36E-07,  avg # of iterations =  6.6

     negative rho (up, down):  3.162E-02 0.000E+00

     total cpu time spent up to now is      106.8 secs

     total energy              =    -727.40632877 Ry
     estimated scf accuracy    <       0.63805237 Ry

     iteration # 82     ecut=    30.00 Ry     beta= 0.70
     Davidson diagonalization with overlap
     ethr =  1.36E-07,  avg # of iterations =  8.6

     negative rho (up, down):  3.674E-02 0.000E+00

     total cpu time spent up to now is      108.5 secs

     total energy              =    -727.46282983 Ry
     estimated scf accuracy    <       0.16329270 Ry

     iteration # 83     ecut=    30.00 Ry     beta= 0.70
     Davidson diagonalization with overlap
     ethr =  1.36E-07,  avg # of iterations =  7.9

     negative rho (up, down):  1.666E-01 0.000E+00

     total cpu time spent up to now is      110.2 secs

     total energy              =    -727.35869466 Ry
     estimated scf accuracy    <       0.59004176 Ry

     iteration # 84     ecut=    30.00 Ry     beta= 0.70
     Davidson diagonalization with overlap
     ethr =  1.36E-07,  avg # of iterations =  7.6

     negative rho (up, down):  5.094E-02 0.000E+00

     total cpu time spent up to now is      111.8 secs

     total energy              =    -727.47616792 Ry
     estimated scf accuracy    <       0.10682148 Ry

     iteration # 85     ecut=    30.00 Ry     beta= 0.70
     Davidson diagonalization with overlap
     c_bands:  2 eigenvalues not converged
     ethr =  1.36E-07,  avg # of iterations =  7.6

     negative rho (up, down):  1.403E-01 0.000E+00

     total cpu time spent up to now is      113.4 secs

     total energy              =    -727.54217271 Ry
     estimated scf accuracy    <       0.62111374 Ry

     iteration # 86     ecut=    30.00 Ry     beta= 0.70
     Davidson diagonalization with overlap
     ethr =  1.36E-07,  avg # of iterations =  5.8

     negative rho (up, down):  1.802E-01 0.000E+00

     total cpu time spent up to now is      114.6 secs

     total energy              =    -727.52463720 Ry
     estimated scf accuracy    <       0.77523632 Ry

     iteration # 87     ecut=    30.00 Ry     beta= 0.70
     Davidson diagonalization with overlap
     ethr =  1.36E-07,  avg # of iterations =  5.2

     negative rho (up, down):  2.675E-01 0.000E+00

     total cpu time spent up to now is      115.9 secs

     total energy              =    -727.20326318 Ry
     estimated scf accuracy    <       0.71561467 Ry

     iteration # 88     ecut=    30.00 Ry     beta= 0.70
     Davidson diagonalization with overlap
     ethr =  1.36E-07,  avg # of iterations =  7.0

     negative rho (up, down):  8.242E-02 0.000E+00

     total cpu time spent up to now is      117.3 secs

     total energy              =    -727.22498136 Ry
     estimated scf accuracy    <       0.42199757 Ry

     iteration # 89     ecut=    30.00 Ry     beta= 0.70
     Davidson diagonalization with overlap
     ethr =  1.36E-07,  avg # of iterations =  6.6

     negative rho (up, down):  4.761E-02 0.000E+00

     total cpu time spent up to now is      118.7 secs

     total energy              =    -727.23446480 Ry
     estimated scf accuracy    <       0.45140513 Ry

     iteration # 90     ecut=    30.00 Ry     beta= 0.70
     Davidson diagonalization with overlap
     ethr =  1.36E-07,  avg # of iterations =  6.1

     negative rho (up, down):  8.662E-02 0.000E+00

     total cpu time spent up to now is      120.0 secs

     total energy              =    -727.16122270 Ry
     estimated scf accuracy    <       0.40851840 Ry

     iteration # 91     ecut=    30.00 Ry     beta= 0.70
     Davidson diagonalization with overlap
     ethr =  1.36E-07,  avg # of iterations =  5.3

     negative rho (up, down):  1.042E-01 0.000E+00

     total cpu time spent up to now is      121.2 secs

     total energy              =    -727.13419606 Ry
     estimated scf accuracy    <       0.46367297 Ry

     iteration # 92     ecut=    30.00 Ry     beta= 0.70
     Davidson diagonalization with overlap
     ethr =  1.36E-07,  avg # of iterations =  5.3

     negative rho (up, down):  9.709E-03 0.000E+00

     total cpu time spent up to now is      122.5 secs

     total energy              =    -727.21173361 Ry
     estimated scf accuracy    <       0.53574512 Ry

     iteration # 93     ecut=    30.00 Ry     beta= 0.70
     Davidson diagonalization with overlap
     c_bands:  1 eigenvalues not converged
     ethr =  1.36E-07,  avg # of iterations =  7.9

     negative rho (up, down):  7.266E-03 0.000E+00

     total cpu time spent up to now is      124.0 secs

     total energy              =    -727.37620744 Ry
     estimated scf accuracy    <       0.26627584 Ry

     iteration # 94     ecut=    30.00 Ry     beta= 0.70
     Davidson diagonalization with overlap
     c_bands:  1 eigenvalues not converged
     c_bands:  1 eigenvalues not converged
     ethr =  1.36E-07,  avg # of iterations =  8.3

     negative rho (up, down):  2.769E-02 0.000E+00

     total cpu time spent up to now is      125.5 secs

     total energy              =    -727.47003825 Ry
     estimated scf accuracy    <       0.38922023 Ry

     iteration # 95     ecut=    30.00 Ry     beta= 0.70
     Davidson diagonalization with overlap
     ethr =  1.36E-07,  avg # of iterations =  7.4

     negative rho (up, down):  4.430E-02 0.000E+00

     total cpu time spent up to now is      127.1 secs

     total energy              =    -727.42053383 Ry
     estimated scf accuracy    <       0.37252242 Ry

     iteration # 96     ecut=    30.00 Ry     beta= 0.70
     Davidson diagonalization with overlap
     ethr =  1.36E-07,  avg # of iterations =  7.4

     negative rho (up, down):  4.028E-02 0.000E+00

     total cpu time spent up to now is      128.7 secs

     total energy              =    -727.44033223 Ry
     estimated scf accuracy    <       0.15846753 Ry

     iteration # 97     ecut=    30.00 Ry     beta= 0.70
     Davidson diagonalization with overlap
     ethr =  1.36E-07,  avg # of iterations =  6.2

     negative rho (up, down):  1.740E-02 0.000E+00

     total cpu time spent up to now is      130.0 secs

     total energy              =    -727.41258013 Ry
     estimated scf accuracy    <       0.13846596 Ry

     iteration # 98     ecut=    30.00 Ry     beta= 0.70
     Davidson diagonalization with overlap
     ethr =  1.36E-07,  avg # of iterations =  7.7

     negative rho (up, down):  2.931E-02 0.000E+00

     total cpu time spent up to now is      131.5 secs

     total energy              =    -727.44714523 Ry
     estimated scf accuracy    <       0.11625806 Ry

     iteration # 99     ecut=    30.00 Ry     beta= 0.70
     Davidson diagonalization with overlap
     ethr =  1.36E-07,  avg # of iterations =  7.3

     negative rho (up, down):  3.867E-02 0.000E+00

     total cpu time spent up to now is      133.0 secs

     total energy              =    -727.46057993 Ry
     estimated scf accuracy    <       0.18188963 Ry

     iteration #100     ecut=    30.00 Ry     beta= 0.70
     Davidson diagonalization with overlap
     ethr =  1.36E-07,  avg # of iterations =  7.1

     negative rho (up, down):  1.175E-01 0.000E+00

     total cpu time spent up to now is      134.5 secs

     total energy              =    -727.55032321 Ry
     estimated scf accuracy    <       0.39289929 Ry

     End of self-consistent calculation

     convergence NOT achieved after 100 iterations: stopping

     Writing config to output data dir ./work/calculation.save/

     init_run     :      0.58s CPU      0.60s WALL (       1 calls)
     electrons    :    125.61s CPU    133.73s WALL (       1 calls)

     Called by init_run:
     wfcinit      :      0.18s CPU      0.19s WALL (       1 calls)
     potinit      :      0.13s CPU      0.13s WALL (       1 calls)
     hinit0       :      0.26s CPU      0.26s WALL (       1 calls)

     Called by electrons:
     c_bands      :    101.42s CPU    108.84s WALL (     100 calls)
     sum_band     :      9.94s CPU     10.28s WALL (     100 calls)
     v_of_rho     :      0.33s CPU      0.35s WALL (     101 calls)
     newd         :      0.56s CPU      0.58s WALL (     101 calls)
     PAW_pot      :     13.38s CPU     13.69s WALL (     101 calls)
     mix_rho      :      0.08s CPU      0.08s WALL (     100 calls)

     Called by c_bands:
     init_us_2    :      0.94s CPU      1.00s WALL (   12864 calls)
     init_us_2:cp :      0.93s CPU      1.00s WALL (   12864 calls)
     cegterg      :     99.41s CPU    106.72s WALL (    6400 calls)

     Called by *egterg:
     cdiaghg      :     14.93s CPU     15.18s WALL (   45884 calls)
     h_psi        :     69.96s CPU     73.05s WALL (   45948 calls)
     s_psi        :      2.18s CPU      2.76s WALL (   45948 calls)
     g_psi        :      0.29s CPU      0.31s WALL (   39484 calls)

     Called by h_psi:
     h_psi:calbec :      2.23s CPU      3.40s WALL (   45948 calls)
     vloc_psi     :     65.24s CPU     66.42s WALL (   45948 calls)
     add_vuspsi   :      2.27s CPU      2.91s WALL (   45948 calls)

     General routines
     calbec       :      2.63s CPU      3.94s WALL (   52348 calls)
     fft          :      0.20s CPU      0.20s WALL (    1313 calls)
     ffts         :      0.02s CPU      0.02s WALL (     201 calls)
     fftw         :     64.38s CPU     65.40s WALL ( 1260918 calls)
     interpolate  :      0.03s CPU      0.03s WALL (     101 calls)
     davcio       :      0.00s CPU      0.00s WALL (      18 calls)

     Parallel routines

     PWSCF        :   2m 6.33s CPU   2m14.48s WALL


   This run was terminated on:  18:37:57  23Nov2024            

=------------------------------------------------------------------------------=
   JOB DONE.
=------------------------------------------------------------------------------=
