
     Program PROJWFC v.7.1 starts on 23Nov2024 at 16:19:42 

     This program is part of the open-source Quantum ESPRESSO suite
     for quantum simulation of materials; please cite
         "P. Giannozzi et al., J. Phys.:Condens. Matter 21 395502 (2009);
         "P. Giannozzi et al., J. Phys.:Condens. Matter 29 465901 (2017);
         "P. Giannozzi et al., J. Chem. Phys. 152 154105 (2020);
          URL http://www.quantum-espresso.org", 
     in publications or presentations arising from this work. More details at
     http://www.quantum-espresso.org/quote

     Parallel version (MPI), running on     1 processors

     MPI processes distributed on     1 nodes
     0 MiB available memory on the printing compute node when the environment starts


     Reading xml data from directory:

     ./work/calculation.save/
     file Se.pbe-dn-kjpaw_psl.1.0.0.UPF: wavefunction(s)  4S 4P 3D renormalized
     file Fe.pbe-spn-kjpaw_psl.1.0.0.UPF: wavefunction(s)  3P 3D renormalized

     IMPORTANT: XC functional enforced from input :
     Exchange-correlation= PBE
                           (   1   4   3   4   0   0   0)
     Any further DFT definition will be discarded
     Please, verify this is what you really want


     G-vector sticks info
     --------------------
     sticks:   dense  smooth     PW     G-vecs:    dense   smooth      PW
     Sum         401     317    109                 5887     4169     847

     Using Slab Decomposition


     Check: negative core charge=   -0.000042

     negative rho (up, down):  8.826E-03 0.000E+00

     Linear tetrahedron method (read from file) 
     [opt_tetra]  Linear tetrahedron method is used.

     Calling projwave .... 
     Subspace diagonalization in iterative solution of the eigenvalue problem:
     a serial algorithm will be used


  Problem Sizes 
  natomwfc =           19
  nbnd     =           20
  nkstot   =           10
  npwx     =          552
  nkb      =           36


     Atomic states used for projection
     (read from pseudopotential files):

     state #   1: atom   1 (Fe ), wfc  1 (l=0 m= 1)
     state #   2: atom   1 (Fe ), wfc  2 (l=0 m= 1)
     state #   3: atom   1 (Fe ), wfc  3 (l=1 m= 1)
     state #   4: atom   1 (Fe ), wfc  3 (l=1 m= 2)
     state #   5: atom   1 (Fe ), wfc  3 (l=1 m= 3)
     state #   6: atom   1 (Fe ), wfc  4 (l=2 m= 1)
     state #   7: atom   1 (Fe ), wfc  4 (l=2 m= 2)
     state #   8: atom   1 (Fe ), wfc  4 (l=2 m= 3)
     state #   9: atom   1 (Fe ), wfc  4 (l=2 m= 4)
     state #  10: atom   1 (Fe ), wfc  4 (l=2 m= 5)
     state #  11: atom   2 (Se ), wfc  1 (l=0 m= 1)
     state #  12: atom   2 (Se ), wfc  2 (l=1 m= 1)
     state #  13: atom   2 (Se ), wfc  2 (l=1 m= 2)
     state #  14: atom   2 (Se ), wfc  2 (l=1 m= 3)
     state #  15: atom   2 (Se ), wfc  3 (l=2 m= 1)
     state #  16: atom   2 (Se ), wfc  3 (l=2 m= 2)
     state #  17: atom   2 (Se ), wfc  3 (l=2 m= 3)
     state #  18: atom   2 (Se ), wfc  3 (l=2 m= 4)
     state #  19: atom   2 (Se ), wfc  3 (l=2 m= 5)

 k =   0.0000000000  0.0000000000  0.0000000000
==== e(   1) =   -74.05156 eV ==== 
     psi = 0.989*[#   1]+0.010*[#   2]
    |psi|^2 = 1.000
==== e(   2) =   -38.31959 eV ==== 
     psi = 0.333*[#   3]+0.333*[#   4]+0.333*[#   5]
    |psi|^2 = 0.999
==== e(   3) =   -38.31959 eV ==== 
     psi = 0.333*[#   3]+0.333*[#   4]+0.333*[#   5]
    |psi|^2 = 0.999
==== e(   4) =   -38.31959 eV ==== 
     psi = 0.333*[#   3]+0.333*[#   4]+0.333*[#   5]
    |psi|^2 = 0.999
==== e(   5) =   -34.01069 eV ==== 
     psi = 0.332*[#  16]+0.332*[#  17]+0.332*[#  19]
    |psi|^2 = 0.995
==== e(   6) =   -34.01069 eV ==== 
     psi = 0.332*[#  16]+0.332*[#  17]+0.332*[#  19]
    |psi|^2 = 0.995
==== e(   7) =   -34.01069 eV ==== 
     psi = 0.332*[#  16]+0.332*[#  17]+0.332*[#  19]
    |psi|^2 = 0.995
==== e(   8) =   -33.49816 eV ==== 
     psi = 0.496*[#  15]+0.496*[#  18]
    |psi|^2 = 0.994
==== e(   9) =   -33.49816 eV ==== 
     psi = 0.496*[#  15]+0.496*[#  18]
    |psi|^2 = 0.994
==== e(  10) =    -0.40080 eV ==== 
     psi = 0.547*[#  11]+0.446*[#   2]+0.008*[#   1]
    |psi|^2 = 1.000
==== e(  11) =    14.91165 eV ==== 
     psi = 0.462*[#   6]+0.462*[#   9]
    |psi|^2 = 0.924
==== e(  12) =    14.91165 eV ==== 
     psi = 0.462*[#   6]+0.462*[#   9]
    |psi|^2 = 0.924
==== e(  13) =    14.95253 eV ==== 
     psi = 0.326*[#  12]+0.326*[#  13]+0.326*[#  14]
    |psi|^2 = 0.979
==== e(  14) =    14.95253 eV ==== 
     psi = 0.326*[#  12]+0.326*[#  13]+0.326*[#  14]
    |psi|^2 = 0.979
==== e(  15) =    14.95253 eV ==== 
     psi = 0.326*[#  12]+0.326*[#  13]+0.326*[#  14]
    |psi|^2 = 0.979
==== e(  16) =    16.37031 eV ==== 
     psi = 0.331*[#   7]+0.331*[#   8]+0.331*[#  10]
    |psi|^2 = 0.992
==== e(  17) =    16.37031 eV ==== 
     psi = 0.331*[#   7]+0.331*[#   8]+0.331*[#  10]
    |psi|^2 = 0.992
==== e(  18) =    16.37031 eV ==== 
     psi = 0.331*[#   7]+0.331*[#   8]+0.331*[#  10]
    |psi|^2 = 0.992
==== e(  19) =    19.30061 eV ==== 
     psi = 0.541*[#   2]+0.452*[#  11]+0.003*[#   1]
    |psi|^2 = 0.997
==== e(  20) =    24.09981 eV ==== 
     psi = 0.035*[#   6]+0.035*[#   9]+0.001*[#  15]+0.001*[#  18]
    |psi|^2 = 0.072

 k =   0.0000000000  0.0000000000  0.2500000000
==== e(   1) =   -74.07259 eV ==== 
     psi = 0.988*[#   1]+0.003*[#  12]+0.003*[#  13]+0.003*[#  14]+0.002*[#   2]
          
    |psi|^2 = 1.000
==== e(   2) =   -38.66353 eV ==== 
     psi = 0.332*[#   3]+0.332*[#   4]+0.332*[#   5]+0.001*[#   2]
    |psi|^2 = 0.999
==== e(   3) =   -38.41495 eV ==== 
     psi = 0.332*[#   3]+0.332*[#   4]+0.332*[#   5]+0.001*[#  16]+0.001*[#  17]
          +0.001*[#  19]
    |psi|^2 = 0.999
==== e(   4) =   -38.41495 eV ==== 
     psi = 0.332*[#   3]+0.332*[#   4]+0.332*[#   5]+0.001*[#  16]+0.001*[#  17]
          +0.001*[#  19]
    |psi|^2 = 0.999
==== e(   5) =   -34.21551 eV ==== 
     psi = 0.330*[#  16]+0.330*[#  17]+0.330*[#  19]+0.001*[#   3]+0.001*[#   4]
          +0.001*[#   5]
    |psi|^2 = 0.995
==== e(   6) =   -34.21551 eV ==== 
     psi = 0.330*[#  16]+0.330*[#  17]+0.330*[#  19]+0.001*[#   3]+0.001*[#   4]
          +0.001*[#   5]
    |psi|^2 = 0.995
==== e(   7) =   -34.03832 eV ==== 
     psi = 0.332*[#  16]+0.332*[#  17]+0.332*[#  19]
    |psi|^2 = 0.995
==== e(   8) =   -34.03430 eV ==== 
     psi = 0.497*[#  15]+0.497*[#  18]
    |psi|^2 = 0.995
==== e(   9) =   -33.68483 eV ==== 
     psi = 0.497*[#  15]+0.497*[#  18]
    |psi|^2 = 0.994
==== e(  10) =     0.31783 eV ==== 
     psi = 0.663*[#  11]+0.310*[#   2]+0.007*[#  12]+0.007*[#  13]+0.007*[#  14]
          +0.004*[#   1]
    |psi|^2 = 0.999
==== e(  11) =    10.31120 eV ==== 
     psi = 0.232*[#  12]+0.232*[#  13]+0.232*[#  14]+0.106*[#  11]+0.066*[#   2]
          +0.051*[#   6]+0.051*[#   9]+0.008*[#   1]
    |psi|^2 = 0.980
==== e(  12) =    14.22097 eV ==== 
     psi = 0.175*[#  12]+0.175*[#  13]+0.175*[#  14]+0.156*[#   7]+0.156*[#   8]
          +0.156*[#  10]
    |psi|^2 = 0.992
==== e(  13) =    14.22097 eV ==== 
     psi = 0.175*[#  12]+0.175*[#  13]+0.175*[#  14]+0.156*[#   7]+0.156*[#   8]
          +0.156*[#  10]
    |psi|^2 = 0.992
==== e(  14) =    15.01359 eV ==== 
     psi = 0.476*[#   6]+0.476*[#   9]
    |psi|^2 = 0.953
==== e(  15) =    15.97421 eV ==== 
     psi = 0.426*[#   6]+0.426*[#   9]+0.041*[#   2]+0.035*[#  11]+0.018*[#  12]
          +0.018*[#  13]+0.018*[#  14]
    |psi|^2 = 0.983
==== e(  16) =    16.38042 eV ==== 
     psi = 0.331*[#   7]+0.331*[#   8]+0.331*[#  10]
    |psi|^2 = 0.993
==== e(  17) =    17.48684 eV ==== 
     psi = 0.173*[#   7]+0.173*[#   8]+0.173*[#  10]+0.150*[#  12]+0.150*[#  13]
          +0.150*[#  14]
    |psi|^2 = 0.969
==== e(  18) =    17.48684 eV ==== 
     psi = 0.173*[#   7]+0.173*[#   8]+0.173*[#  10]+0.150*[#  12]+0.150*[#  13]
          +0.150*[#  14]
    |psi|^2 = 0.969
==== e(  19) =    21.12544 eV ==== 
     psi = 0.480*[#   2]+0.175*[#  11]+0.048*[#  12]+0.048*[#  13]+0.048*[#  14]
          +0.016*[#   6]+0.016*[#   9]
    |psi|^2 = 0.832
==== e(  20) =    23.74315 eV ==== 
     psi = 0.019*[#   6]+0.019*[#   9]
    |psi|^2 = 0.039

 k =   0.0000000000  0.0000000000 -0.5000000000
==== e(   1) =   -74.01458 eV ==== 
     psi = 0.980*[#   1]+0.006*[#  12]+0.006*[#  13]+0.006*[#  14]
    |psi|^2 = 1.000
==== e(   2) =   -38.33569 eV ==== 
     psi = 0.330*[#   3]+0.330*[#   4]+0.330*[#   5]+0.003*[#  15]+0.003*[#  18]
          +0.002*[#  11]
    |psi|^2 = 0.999
==== e(   3) =   -37.98849 eV ==== 
     psi = 0.330*[#   3]+0.330*[#   4]+0.330*[#   5]+0.003*[#  16]+0.003*[#  17]
          +0.003*[#  19]
    |psi|^2 = 0.999
==== e(   4) =   -37.98849 eV ==== 
     psi = 0.330*[#   3]+0.330*[#   4]+0.330*[#   5]+0.003*[#  16]+0.003*[#  17]
          +0.003*[#  19]
    |psi|^2 = 0.999
==== e(   5) =   -33.68153 eV ==== 
     psi = 0.328*[#  16]+0.328*[#  17]+0.328*[#  19]+0.003*[#   3]+0.003*[#   4]
          +0.003*[#   5]
    |psi|^2 = 0.994
==== e(   6) =   -33.68153 eV ==== 
     psi = 0.328*[#  16]+0.328*[#  17]+0.328*[#  19]+0.003*[#   3]+0.003*[#   4]
          +0.003*[#   5]
    |psi|^2 = 0.994
==== e(   7) =   -33.44242 eV ==== 
     psi = 0.493*[#  15]+0.493*[#  18]+0.002*[#   3]+0.002*[#   4]+0.002*[#   5]
          
    |psi|^2 = 0.993
==== e(   8) =   -33.19095 eV ==== 
     psi = 0.331*[#  16]+0.331*[#  17]+0.331*[#  19]
    |psi|^2 = 0.993
==== e(   9) =   -33.18318 eV ==== 
     psi = 0.496*[#  15]+0.496*[#  18]
    |psi|^2 = 0.993
==== e(  10) =     1.36606 eV ==== 
     psi = 0.991*[#  11]
    |psi|^2 = 0.992
==== e(  11) =     7.58127 eV ==== 
     psi = 0.245*[#   2]+0.233*[#  12]+0.233*[#  13]+0.233*[#  14]+0.022*[#   6]
          +0.022*[#   9]+0.011*[#   1]
    |psi|^2 = 1.000
==== e(  12) =    14.12783 eV ==== 
     psi = 0.174*[#   7]+0.174*[#   8]+0.174*[#  10]+0.158*[#  12]+0.158*[#  13]
          +0.158*[#  14]
    |psi|^2 = 0.996
==== e(  13) =    14.12783 eV ==== 
     psi = 0.174*[#   7]+0.174*[#   8]+0.174*[#  10]+0.158*[#  12]+0.158*[#  13]
          +0.158*[#  14]
    |psi|^2 = 0.996
==== e(  14) =    15.89577 eV ==== 
     psi = 0.489*[#   6]+0.489*[#   9]
    |psi|^2 = 0.979
==== e(  15) =    17.60444 eV ==== 
     psi = 0.331*[#   7]+0.331*[#   8]+0.331*[#  10]
    |psi|^2 = 0.994
==== e(  16) =    17.62383 eV ==== 
     psi = 0.475*[#   6]+0.475*[#   9]+0.012*[#   2]+0.011*[#  12]+0.011*[#  13]
          +0.011*[#  14]
    |psi|^2 = 0.993
==== e(  17) =    19.37609 eV ==== 
     psi = 0.174*[#  12]+0.174*[#  13]+0.174*[#  14]+0.157*[#   7]+0.157*[#   8]
          +0.157*[#  10]
    |psi|^2 = 0.994
==== e(  18) =    19.37609 eV ==== 
     psi = 0.174*[#  12]+0.174*[#  13]+0.174*[#  14]+0.157*[#   7]+0.157*[#   8]
          +0.157*[#  10]
    |psi|^2 = 0.994
==== e(  19) =    21.90369 eV ==== 
     psi = 0.007*[#  11]
    |psi|^2 = 0.008
==== e(  20) =    23.38271 eV ==== 

    |psi|^2 = 0.002

 k =   0.0000000000  0.2500000000  0.2500000000
==== e(   1) =   -74.08553 eV ==== 
     psi = 0.988*[#   1]+0.004*[#  12]+0.004*[#  13]+0.004*[#  14]
    |psi|^2 = 1.000
==== e(   2) =   -38.64532 eV ==== 
     psi = 0.331*[#   3]+0.331*[#   4]+0.331*[#   5]+0.001*[#  16]+0.001*[#  17]
          +0.001*[#  19]
    |psi|^2 = 0.999
==== e(   3) =   -38.64439 eV ==== 
     psi = 0.332*[#   3]+0.332*[#   4]+0.332*[#   5]
    |psi|^2 = 0.999
==== e(   4) =   -38.49951 eV ==== 
     psi = 0.331*[#   3]+0.331*[#   4]+0.331*[#   5]+0.002*[#  16]+0.002*[#  17]
          +0.002*[#  19]
    |psi|^2 = 0.999
==== e(   5) =   -34.38747 eV ==== 
     psi = 0.332*[#  16]+0.332*[#  17]+0.332*[#  19]
    |psi|^2 = 0.996
==== e(   6) =   -34.36337 eV ==== 
     psi = 0.498*[#  15]+0.498*[#  18]
    |psi|^2 = 0.996
==== e(   7) =   -34.14619 eV ==== 
     psi = 0.330*[#  16]+0.330*[#  17]+0.330*[#  19]+0.002*[#   3]+0.002*[#   4]
          +0.002*[#   5]
    |psi|^2 = 0.995
==== e(   8) =   -34.13517 eV ==== 
     psi = 0.295*[#  16]+0.295*[#  17]+0.295*[#  19]+0.054*[#  15]+0.054*[#  18]
          
    |psi|^2 = 0.995
==== e(   9) =   -33.81648 eV ==== 
     psi = 0.443*[#  15]+0.443*[#  18]+0.036*[#  16]+0.036*[#  17]+0.036*[#  19]
          
    |psi|^2 = 0.994
==== e(  10) =     0.98415 eV ==== 
     psi = 0.738*[#  11]+0.188*[#   2]+0.019*[#  12]+0.019*[#  13]+0.019*[#  14]
          +0.004*[#   7]+0.004*[#   8]+0.004*[#  10]+0.002*[#   1]
    |psi|^2 = 0.999
==== e(  11) =    10.68184 eV ==== 
     psi = 0.194*[#  12]+0.194*[#  13]+0.194*[#  14]+0.136*[#   2]+0.130*[#  11]
          +0.032*[#   7]+0.032*[#   8]+0.032*[#  10]+0.019*[#   6]+0.019*[#   9]
          +0.006*[#   1]
    |psi|^2 = 0.987
==== e(  12) =    11.16209 eV ==== 
     psi = 0.281*[#  12]+0.281*[#  13]+0.281*[#  14]+0.065*[#   6]+0.065*[#   9]
          
    |psi|^2 = 0.977
==== e(  13) =    14.43396 eV ==== 
     psi = 0.177*[#   7]+0.177*[#   8]+0.177*[#  10]+0.153*[#  12]+0.153*[#  13]
          +0.153*[#  14]
    |psi|^2 = 0.991
==== e(  14) =    15.19822 eV ==== 
     psi = 0.395*[#   6]+0.395*[#   9]+0.053*[#   7]+0.053*[#   8]+0.053*[#  10]
          +0.004*[#  12]+0.004*[#  13]+0.004*[#  14]
    |psi|^2 = 0.961
==== e(  15) =    15.57684 eV ==== 
     psi = 0.329*[#   7]+0.329*[#   8]+0.329*[#  10]
    |psi|^2 = 0.988
==== e(  16) =    16.11540 eV ==== 
     psi = 0.431*[#   6]+0.431*[#   9]+0.044*[#  12]+0.044*[#  13]+0.044*[#  14]
          
    |psi|^2 = 0.993
==== e(  17) =    16.66944 eV ==== 
     psi = 0.228*[#   7]+0.228*[#   8]+0.228*[#  10]+0.080*[#  11]+0.065*[#   6]
          +0.065*[#   9]+0.059*[#   2]+0.011*[#  12]+0.011*[#  13]+0.011*[#  14]
          
    |psi|^2 = 0.986
==== e(  18) =    18.05476 eV ==== 
     psi = 0.174*[#  12]+0.174*[#  13]+0.174*[#  14]+0.154*[#   7]+0.154*[#   8]
          +0.154*[#  10]
    |psi|^2 = 0.985
==== e(  19) =    22.30952 eV ==== 
     psi = 0.471*[#   2]+0.080*[#  12]+0.080*[#  13]+0.080*[#  14]+0.032*[#  11]
          +0.014*[#   7]+0.014*[#   8]+0.014*[#  10]+0.003*[#   1]
    |psi|^2 = 0.788
==== e(  20) =    23.54672 eV ==== 
     psi = 0.017*[#   6]+0.017*[#   9]+0.006*[#  11]+0.004*[#   2]
    |psi|^2 = 0.046

 k =   0.0000000000  0.2500000000 -0.5000000000
==== e(   1) =   -74.06578 eV ==== 
     psi = 0.987*[#   1]+0.003*[#  12]+0.003*[#  13]+0.003*[#  14]+0.002*[#   2]
          
    |psi|^2 = 1.000
==== e(   2) =   -38.68181 eV ==== 
     psi = 0.332*[#   3]+0.332*[#   4]+0.332*[#   5]
    |psi|^2 = 0.999
==== e(   3) =   -38.47661 eV ==== 
     psi = 0.332*[#   3]+0.332*[#   4]+0.332*[#   5]
    |psi|^2 = 0.999
==== e(   4) =   -38.27710 eV ==== 
     psi = 0.331*[#   3]+0.331*[#   4]+0.331*[#   5]+0.002*[#  16]+0.002*[#  17]
          +0.002*[#  19]
    |psi|^2 = 0.999
==== e(   5) =   -34.37808 eV ==== 
     psi = 0.498*[#  15]+0.498*[#  18]
    |psi|^2 = 0.996
==== e(   6) =   -34.16142 eV ==== 
     psi = 0.329*[#  16]+0.329*[#  17]+0.329*[#  19]+0.002*[#   3]+0.002*[#   4]
          +0.002*[#   5]
    |psi|^2 = 0.995
==== e(   7) =   -33.99504 eV ==== 
     psi = 0.331*[#  16]+0.331*[#  17]+0.331*[#  19]
    |psi|^2 = 0.995
==== e(   8) =   -33.92988 eV ==== 
     psi = 0.332*[#  16]+0.332*[#  17]+0.332*[#  19]
    |psi|^2 = 0.995
==== e(   9) =   -33.57453 eV ==== 
     psi = 0.496*[#  15]+0.496*[#  18]
    |psi|^2 = 0.994
==== e(  10) =     1.92023 eV ==== 
     psi = 0.914*[#  11]+0.015*[#  12]+0.015*[#  13]+0.015*[#  14]+0.012*[#   7]
          +0.012*[#   8]+0.012*[#  10]
    |psi|^2 = 0.996
==== e(  11) =     8.39882 eV ==== 
     psi = 0.257*[#  12]+0.257*[#  13]+0.257*[#  14]+0.183*[#   2]+0.019*[#   6]
          +0.019*[#   9]+0.005*[#   1]
    |psi|^2 = 0.999
==== e(  12) =    11.80900 eV ==== 
     psi = 0.271*[#  12]+0.271*[#  13]+0.271*[#  14]+0.051*[#   7]+0.051*[#   8]
          +0.051*[#  10]+0.016*[#  11]
    |psi|^2 = 0.983
==== e(  13) =    14.46255 eV ==== 
     psi = 0.221*[#   7]+0.221*[#   8]+0.221*[#  10]+0.110*[#  12]+0.110*[#  13]
          +0.110*[#  14]
    |psi|^2 = 0.992
==== e(  14) =    15.30037 eV ==== 
     psi = 0.441*[#   6]+0.441*[#   9]+0.056*[#   2]+0.005*[#  12]+0.005*[#  13]
          +0.005*[#  14]
    |psi|^2 = 0.954
==== e(  15) =    16.19225 eV ==== 
     psi = 0.328*[#   7]+0.328*[#   8]+0.328*[#  10]
    |psi|^2 = 0.983
==== e(  16) =    16.44683 eV ==== 
     psi = 0.470*[#   6]+0.470*[#   9]+0.016*[#  12]+0.016*[#  13]+0.016*[#  14]
          
    |psi|^2 = 0.988
==== e(  17) =    17.05138 eV ==== 
     psi = 0.266*[#   7]+0.266*[#   8]+0.266*[#  10]+0.068*[#  11]+0.039*[#  12]
          +0.039*[#  13]+0.039*[#  14]
    |psi|^2 = 0.981
==== e(  18) =    18.36507 eV ==== 
     psi = 0.223*[#  12]+0.223*[#  13]+0.223*[#  14]+0.109*[#   7]+0.109*[#   8]
          +0.109*[#  10]
    |psi|^2 = 0.994
==== e(  19) =    20.16742 eV ==== 
     psi = 0.586*[#   2]+0.061*[#   6]+0.061*[#   9]+0.036*[#  12]+0.036*[#  13]
          +0.036*[#  14]+0.005*[#   1]
    |psi|^2 = 0.821
==== e(  20) =    23.89599 eV ==== 
     psi = 0.002*[#   7]+0.002*[#   8]+0.002*[#  10]+0.002*[#  12]+0.002*[#  13]
          +0.002*[#  14]
    |psi|^2 = 0.014

 k =   0.0000000000 -0.5000000000 -0.5000000000
==== e(   1) =   -74.09173 eV ==== 
     psi = 0.995*[#   1]+0.004*[#   2]
    |psi|^2 = 1.000
==== e(   2) =   -38.71183 eV ==== 
     psi = 0.332*[#   3]+0.332*[#   4]+0.332*[#   5]+0.002*[#  12]+0.002*[#  13]
          +0.002*[#  14]
    |psi|^2 = 0.999
==== e(   3) =   -38.71183 eV ==== 
     psi = 0.332*[#   3]+0.332*[#   4]+0.332*[#   5]+0.002*[#  12]+0.002*[#  13]
          +0.002*[#  14]
    |psi|^2 = 0.999
==== e(   4) =   -38.54035 eV ==== 
     psi = 0.333*[#   3]+0.333*[#   4]+0.333*[#   5]
    |psi|^2 = 0.999
==== e(   5) =   -34.65170 eV ==== 
     psi = 0.498*[#  15]+0.498*[#  18]
    |psi|^2 = 0.996
==== e(   6) =   -34.45896 eV ==== 
     psi = 0.332*[#  16]+0.332*[#  17]+0.332*[#  19]
    |psi|^2 = 0.996
==== e(   7) =   -34.45896 eV ==== 
     psi = 0.332*[#  16]+0.332*[#  17]+0.332*[#  19]
    |psi|^2 = 0.996
==== e(   8) =   -33.89094 eV ==== 
     psi = 0.331*[#  16]+0.331*[#  17]+0.331*[#  19]
    |psi|^2 = 0.995
==== e(   9) =   -33.75099 eV ==== 
     psi = 0.497*[#  15]+0.497*[#  18]
    |psi|^2 = 0.994
==== e(  10) =     2.67122 eV ==== 
     psi = 0.913*[#  11]+0.028*[#   7]+0.028*[#   8]+0.028*[#  10]
    |psi|^2 = 0.998
==== e(  11) =     9.70915 eV ==== 
     psi = 0.328*[#  12]+0.328*[#  13]+0.328*[#  14]+0.001*[#   3]+0.001*[#   4]
          +0.001*[#   5]
    |psi|^2 = 0.990
==== e(  12) =     9.70915 eV ==== 
     psi = 0.328*[#  12]+0.328*[#  13]+0.328*[#  14]+0.001*[#   3]+0.001*[#   4]
          +0.001*[#   5]
    |psi|^2 = 0.990
==== e(  13) =    14.09119 eV ==== 
     psi = 0.437*[#   2]+0.269*[#   6]+0.269*[#   9]
    |psi|^2 = 0.976
==== e(  14) =    15.17664 eV ==== 
     psi = 0.328*[#   7]+0.328*[#   8]+0.328*[#  10]
    |psi|^2 = 0.984
==== e(  15) =    15.17664 eV ==== 
     psi = 0.328*[#   7]+0.328*[#   8]+0.328*[#  10]
    |psi|^2 = 0.984
==== e(  16) =    15.97477 eV ==== 
     psi = 0.497*[#   6]+0.497*[#   9]
    |psi|^2 = 0.994
==== e(  17) =    16.64138 eV ==== 
     psi = 0.301*[#   7]+0.301*[#   8]+0.301*[#  10]+0.086*[#  11]
    |psi|^2 = 0.989
==== e(  18) =    17.29499 eV ==== 
     psi = 0.333*[#  12]+0.333*[#  13]+0.333*[#  14]
    |psi|^2 = 0.998
==== e(  19) =    18.65802 eV ==== 
     psi = 0.515*[#   2]+0.228*[#   6]+0.228*[#   9]+0.004*[#   1]
    |psi|^2 = 0.975
==== e(  20) =    26.83551 eV ==== 
     psi = 0.002*[#   7]+0.002*[#   8]+0.002*[#  10]
    |psi|^2 = 0.007

 k =   0.2500000000  0.2500000000  0.2500000000
==== e(   1) =   -74.07284 eV ==== 
     psi = 0.990*[#   1]+0.003*[#  12]+0.003*[#  13]+0.003*[#  14]
    |psi|^2 = 1.000
==== e(   2) =   -38.70876 eV ==== 
     psi = 0.332*[#   3]+0.332*[#   4]+0.332*[#   5]
    |psi|^2 = 0.999
==== e(   3) =   -38.43525 eV ==== 
     psi = 0.332*[#   3]+0.332*[#   4]+0.332*[#   5]
    |psi|^2 = 0.999
==== e(   4) =   -38.43525 eV ==== 
     psi = 0.332*[#   3]+0.332*[#   4]+0.332*[#   5]
    |psi|^2 = 0.999
==== e(   5) =   -34.23318 eV ==== 
     psi = 0.390*[#  15]+0.390*[#  18]+0.071*[#  16]+0.071*[#  17]+0.071*[#  19]
          
    |psi|^2 = 0.995
==== e(   6) =   -34.23318 eV ==== 
     psi = 0.390*[#  15]+0.390*[#  18]+0.071*[#  16]+0.071*[#  17]+0.071*[#  19]
          
    |psi|^2 = 0.995
==== e(   7) =   -34.17742 eV ==== 
     psi = 0.331*[#  16]+0.331*[#  17]+0.331*[#  19]
    |psi|^2 = 0.995
==== e(   8) =   -33.88382 eV ==== 
     psi = 0.259*[#  16]+0.259*[#  17]+0.259*[#  19]+0.108*[#  15]+0.108*[#  18]
          
    |psi|^2 = 0.995
==== e(   9) =   -33.88382 eV ==== 
     psi = 0.259*[#  16]+0.259*[#  17]+0.259*[#  19]+0.108*[#  15]+0.108*[#  18]
          
    |psi|^2 = 0.995
==== e(  10) =     1.62642 eV ==== 
     psi = 0.773*[#  11]+0.107*[#   2]+0.031*[#  12]+0.031*[#  13]+0.031*[#  14]
          +0.008*[#   7]+0.008*[#   8]+0.008*[#  10]+0.001*[#   1]
    |psi|^2 = 0.999
==== e(  11) =    11.46807 eV ==== 
     psi = 0.257*[#  12]+0.257*[#  13]+0.257*[#  14]+0.046*[#   7]+0.046*[#   8]
          +0.046*[#  10]+0.034*[#   6]+0.034*[#   9]
    |psi|^2 = 0.979
==== e(  12) =    11.46807 eV ==== 
     psi = 0.257*[#  12]+0.257*[#  13]+0.257*[#  14]+0.046*[#   7]+0.046*[#   8]
          +0.046*[#  10]+0.034*[#   6]+0.034*[#   9]
    |psi|^2 = 0.979
==== e(  13) =    11.53014 eV ==== 
     psi = 0.199*[#   2]+0.195*[#  12]+0.195*[#  13]+0.195*[#  14]+0.157*[#  11]
          +0.016*[#   7]+0.016*[#   8]+0.016*[#  10]+0.003*[#   1]
    |psi|^2 = 0.994
==== e(  14) =    15.33212 eV ==== 
     psi = 0.322*[#   6]+0.322*[#   9]+0.106*[#   7]+0.106*[#   8]+0.106*[#  10]
          
    |psi|^2 = 0.964
==== e(  15) =    15.33212 eV ==== 
     psi = 0.322*[#   6]+0.322*[#   9]+0.106*[#   7]+0.106*[#   8]+0.106*[#  10]
          
    |psi|^2 = 0.964
==== e(  16) =    16.25341 eV ==== 
     psi = 0.305*[#   7]+0.305*[#   8]+0.305*[#  10]+0.050*[#  11]+0.009*[#  12]
          +0.009*[#  13]+0.009*[#  14]
    |psi|^2 = 0.992
==== e(  17) =    17.54529 eV ==== 
     psi = 0.169*[#   7]+0.169*[#   8]+0.169*[#  10]+0.136*[#   6]+0.136*[#   9]
          +0.064*[#  12]+0.064*[#  13]+0.064*[#  14]
    |psi|^2 = 0.969
==== e(  18) =    17.54529 eV ==== 
     psi = 0.169*[#   7]+0.169*[#   8]+0.169*[#  10]+0.136*[#   6]+0.136*[#   9]
          +0.064*[#  12]+0.064*[#  13]+0.064*[#  14]
    |psi|^2 = 0.969
==== e(  19) =    22.08103 eV ==== 
     psi = 0.596*[#   2]+0.087*[#  12]+0.087*[#  13]+0.087*[#  14]+0.013*[#  11]
          +0.005*[#   1]+0.002*[#   7]+0.002*[#   8]+0.002*[#  10]
    |psi|^2 = 0.881
==== e(  20) =    24.15909 eV ==== 
     psi = 0.010*[#   7]+0.010*[#   8]+0.010*[#  10]+0.008*[#  12]+0.008*[#  13]
          +0.008*[#  14]+0.004*[#   6]+0.004*[#   9]
    |psi|^2 = 0.063

 k =   0.2500000000  0.2500000000 -0.5000000000
==== e(   1) =   -74.07805 eV ==== 
     psi = 0.990*[#   1]+0.004*[#   2]+0.002*[#  12]+0.002*[#  13]+0.002*[#  14]
          
    |psi|^2 = 1.000
==== e(   2) =   -38.63996 eV ==== 
     psi = 0.331*[#   3]+0.331*[#   4]+0.331*[#   5]
    |psi|^2 = 0.999
==== e(   3) =   -38.55197 eV ==== 
     psi = 0.332*[#   3]+0.332*[#   4]+0.332*[#   5]+0.001*[#  16]+0.001*[#  17]
          +0.001*[#  19]
    |psi|^2 = 0.999
==== e(   4) =   -38.53625 eV ==== 
     psi = 0.332*[#   3]+0.332*[#   4]+0.332*[#   5]
    |psi|^2 = 0.999
==== e(   5) =   -34.30776 eV ==== 
     psi = 0.497*[#  15]+0.497*[#  18]
    |psi|^2 = 0.996
==== e(   6) =   -34.15271 eV ==== 
     psi = 0.498*[#  15]+0.498*[#  18]
    |psi|^2 = 0.995
==== e(   7) =   -34.11486 eV ==== 
     psi = 0.331*[#  16]+0.331*[#  17]+0.331*[#  19]+0.001*[#   3]+0.001*[#   4]
          +0.001*[#   5]
    |psi|^2 = 0.995
==== e(   8) =   -34.09123 eV ==== 
     psi = 0.331*[#  16]+0.331*[#  17]+0.331*[#  19]
    |psi|^2 = 0.995
==== e(   9) =   -34.07599 eV ==== 
     psi = 0.330*[#  16]+0.330*[#  17]+0.330*[#  19]
    |psi|^2 = 0.995
==== e(  10) =     2.52325 eV ==== 
     psi = 0.882*[#  11]+0.025*[#  12]+0.025*[#  13]+0.025*[#  14]+0.014*[#   7]
          +0.014*[#   8]+0.014*[#  10]
    |psi|^2 = 0.998
==== e(  11) =     9.04703 eV ==== 
     psi = 0.266*[#  12]+0.266*[#  13]+0.266*[#  14]+0.128*[#   2]+0.013*[#   6]
          +0.013*[#   9]+0.013*[#   7]+0.013*[#   8]+0.013*[#  10]+0.002*[#   1]
          
    |psi|^2 = 0.997
==== e(  12) =    11.65637 eV ==== 
     psi = 0.212*[#  12]+0.212*[#  13]+0.212*[#  14]+0.119*[#   7]+0.119*[#   8]
          +0.119*[#  10]
    |psi|^2 = 0.993
==== e(  13) =    12.85925 eV ==== 
     psi = 0.295*[#  12]+0.295*[#  13]+0.295*[#  14]+0.080*[#  11]
    |psi|^2 = 0.967
==== e(  14) =    15.27531 eV ==== 
     psi = 0.461*[#   6]+0.461*[#   9]
    |psi|^2 = 0.922
==== e(  15) =    15.44068 eV ==== 
     psi = 0.232*[#   7]+0.232*[#   8]+0.232*[#  10]+0.108*[#   2]+0.086*[#   6]
          +0.086*[#   9]
    |psi|^2 = 0.977
==== e(  16) =    15.94372 eV ==== 
     psi = 0.310*[#   7]+0.310*[#   8]+0.310*[#  10]+0.037*[#  11]
    |psi|^2 = 0.968
==== e(  17) =    16.62549 eV ==== 
     psi = 0.394*[#   6]+0.394*[#   9]+0.049*[#   7]+0.049*[#   8]+0.049*[#  10]
          +0.023*[#   2]+0.011*[#  12]+0.011*[#  13]+0.011*[#  14]
    |psi|^2 = 0.992
==== e(  18) =    18.36519 eV ==== 
     psi = 0.212*[#   7]+0.212*[#   8]+0.212*[#  10]+0.116*[#  12]+0.116*[#  13]
          +0.116*[#  14]
    |psi|^2 = 0.984
==== e(  19) =    20.69579 eV ==== 
     psi = 0.651*[#   2]+0.050*[#  12]+0.050*[#  13]+0.050*[#  14]+0.037*[#   7]
          +0.037*[#   8]+0.037*[#  10]+0.007*[#   1]+0.003*[#   6]+0.003*[#   9]
          
    |psi|^2 = 0.925
==== e(  20) =    21.21116 eV ==== 
     psi = 0.036*[#   6]+0.036*[#   9]
    |psi|^2 = 0.072

 k =   0.2500000000 -0.5000000000 -0.5000000000
==== e(   1) =   -74.08503 eV ==== 
     psi = 0.992*[#   1]+0.008*[#   2]
    |psi|^2 = 1.000
==== e(   2) =   -38.70608 eV ==== 
     psi = 0.333*[#   3]+0.333*[#   4]+0.333*[#   5]
    |psi|^2 = 0.999
==== e(   3) =   -38.59233 eV ==== 
     psi = 0.332*[#   3]+0.332*[#   4]+0.332*[#   5]
    |psi|^2 = 0.999
==== e(   4) =   -38.59233 eV ==== 
     psi = 0.332*[#   3]+0.332*[#   4]+0.332*[#   5]
    |psi|^2 = 0.999
==== e(   5) =   -34.48970 eV ==== 
     psi = 0.498*[#  15]+0.498*[#  18]
    |psi|^2 = 0.996
==== e(   6) =   -34.30016 eV ==== 
     psi = 0.498*[#  15]+0.498*[#  18]
    |psi|^2 = 0.996
==== e(   7) =   -34.13454 eV ==== 
     psi = 0.331*[#  16]+0.331*[#  17]+0.331*[#  19]
    |psi|^2 = 0.995
==== e(   8) =   -34.13454 eV ==== 
     psi = 0.331*[#  16]+0.331*[#  17]+0.331*[#  19]
    |psi|^2 = 0.995
==== e(   9) =   -34.05698 eV ==== 
     psi = 0.331*[#  16]+0.331*[#  17]+0.331*[#  19]
    |psi|^2 = 0.995
==== e(  10) =     3.35029 eV ==== 
     psi = 0.912*[#  11]+0.018*[#   7]+0.018*[#   8]+0.018*[#  10]+0.011*[#  12]
          +0.011*[#  13]+0.011*[#  14]
    |psi|^2 = 0.999
==== e(  11) =     9.92820 eV ==== 
     psi = 0.286*[#  12]+0.286*[#  13]+0.286*[#  14]+0.043*[#   7]+0.043*[#   8]
          +0.043*[#  10]
    |psi|^2 = 0.990
==== e(  12) =     9.92820 eV ==== 
     psi = 0.286*[#  12]+0.286*[#  13]+0.286*[#  14]+0.043*[#   7]+0.043*[#   8]
          +0.043*[#  10]
    |psi|^2 = 0.990
==== e(  13) =    12.70910 eV ==== 
     psi = 0.202*[#  12]+0.202*[#  13]+0.202*[#  14]+0.103*[#   7]+0.103*[#   8]
          +0.103*[#  10]+0.081*[#  11]
    |psi|^2 = 0.996
==== e(  14) =    14.60854 eV ==== 
     psi = 0.353*[#   6]+0.353*[#   9]+0.227*[#   2]
    |psi|^2 = 0.934
==== e(  15) =    16.03832 eV ==== 
     psi = 0.260*[#   7]+0.260*[#   8]+0.260*[#  10]+0.032*[#  12]+0.032*[#  13]
          +0.032*[#  14]
    |psi|^2 = 0.874
==== e(  16) =    16.03832 eV ==== 
     psi = 0.260*[#   7]+0.260*[#   8]+0.260*[#  10]+0.032*[#  12]+0.032*[#  13]
          +0.032*[#  14]
    |psi|^2 = 0.874
==== e(  17) =    16.53437 eV ==== 
     psi = 0.497*[#   6]+0.497*[#   9]
    |psi|^2 = 0.994
==== e(  18) =    18.10746 eV ==== 
     psi = 0.555*[#   2]+0.144*[#   6]+0.144*[#   9]+0.005*[#   1]
    |psi|^2 = 0.849
==== e(  19) =    18.24413 eV ==== 
     psi = 0.210*[#   7]+0.210*[#   8]+0.210*[#  10]+0.118*[#  12]+0.118*[#  13]
          +0.118*[#  14]+0.007*[#  11]
    |psi|^2 = 0.991
==== e(  20) =    22.16426 eV ==== 
     psi = 0.028*[#   7]+0.028*[#   8]+0.028*[#  10]+0.014*[#  12]+0.014*[#  13]
          +0.014*[#  14]
    |psi|^2 = 0.127

 k =  -0.5000000000 -0.5000000000 -0.5000000000
==== e(   1) =   -74.11081 eV ==== 
     psi = 0.987*[#   1]+0.013*[#   2]
    |psi|^2 = 1.000
==== e(   2) =   -38.82382 eV ==== 
     psi = 0.332*[#   3]+0.332*[#   4]+0.332*[#   5]
    |psi|^2 = 0.999
==== e(   3) =   -38.82382 eV ==== 
     psi = 0.332*[#   3]+0.332*[#   4]+0.332*[#   5]
    |psi|^2 = 0.999
==== e(   4) =   -38.82382 eV ==== 
     psi = 0.332*[#   3]+0.332*[#   4]+0.332*[#   5]
    |psi|^2 = 0.999
==== e(   5) =   -34.58416 eV ==== 
     psi = 0.498*[#  15]+0.498*[#  18]
    |psi|^2 = 0.996
==== e(   6) =   -34.58416 eV ==== 
     psi = 0.498*[#  15]+0.498*[#  18]
    |psi|^2 = 0.996
==== e(   7) =   -34.40023 eV ==== 
     psi = 0.331*[#  16]+0.331*[#  17]+0.331*[#  19]
    |psi|^2 = 0.996
==== e(   8) =   -34.40023 eV ==== 
     psi = 0.331*[#  16]+0.331*[#  17]+0.331*[#  19]
    |psi|^2 = 0.996
==== e(   9) =   -34.40023 eV ==== 
     psi = 0.331*[#  16]+0.331*[#  17]+0.331*[#  19]
    |psi|^2 = 0.996
==== e(  10) =     4.35300 eV ==== 
     psi = 0.999*[#  11]
    |psi|^2 = 0.999
==== e(  11) =    10.06144 eV ==== 
     psi = 0.230*[#  12]+0.230*[#  13]+0.230*[#  14]+0.103*[#   7]+0.103*[#   8]
          +0.103*[#  10]
    |psi|^2 = 0.999
==== e(  12) =    10.06144 eV ==== 
     psi = 0.230*[#  12]+0.230*[#  13]+0.230*[#  14]+0.103*[#   7]+0.103*[#   8]
          +0.103*[#  10]
    |psi|^2 = 0.999
==== e(  13) =    10.06144 eV ==== 
     psi = 0.230*[#  12]+0.230*[#  13]+0.230*[#  14]+0.103*[#   7]+0.103*[#   8]
          +0.103*[#  10]
    |psi|^2 = 0.999
==== e(  14) =    16.10961 eV ==== 
     psi = 0.497*[#   6]+0.497*[#   9]
    |psi|^2 = 0.994
==== e(  15) =    16.10961 eV ==== 
     psi = 0.497*[#   6]+0.497*[#   9]
    |psi|^2 = 0.994
==== e(  16) =    17.84820 eV ==== 

    |psi|^2 = 0.001
==== e(  17) =    17.84820 eV ==== 

    |psi|^2 = 0.001
==== e(  18) =    17.94793 eV ==== 
     psi = 0.228*[#   7]+0.228*[#   8]+0.228*[#  10]+0.103*[#  12]+0.103*[#  13]
          +0.103*[#  14]
    |psi|^2 = 0.991
==== e(  19) =    17.94793 eV ==== 
     psi = 0.228*[#   7]+0.228*[#   8]+0.228*[#  10]+0.103*[#  12]+0.103*[#  13]
          +0.103*[#  14]
    |psi|^2 = 0.991
==== e(  20) =    17.94793 eV ==== 
     psi = 0.228*[#   7]+0.228*[#   8]+0.228*[#  10]+0.103*[#  12]+0.103*[#  13]
          +0.103*[#  14]
    |psi|^2 = 0.991

Lowdin Charges: 

     Atom #   1: total charge =  15.5439, s =  2.5751, 
     Atom #   1: total charge =  15.5439, p =  5.9944, pz=  1.9981, px=  1.9981, py=  1.9981, 
     Atom #   1: total charge =  15.5439, d =  6.9744, dz2=  1.6029, dxz=  1.2562, dyz=  1.2562, dx2-y2=  1.6029, dxy=  1.2562, 
     Atom #   2: total charge =  16.1342, s =  1.8604, 
     Atom #   2: total charge =  16.1342, p =  4.3238, pz=  1.4413, px=  1.4413, py=  1.4413, 
     Atom #   2: total charge =  16.1342, d =  9.9499, dz2=  1.9899, dxz=  1.9901, dyz=  1.9901, dx2-y2=  1.9899, dxy=  1.9901, 
     Spilling Parameter:   0.0101

     PROJWFC      :      0.82s CPU      0.86s WALL


   This run was terminated on:  16:19:42  23Nov2024            

=------------------------------------------------------------------------------=
   JOB DONE.
=------------------------------------------------------------------------------=
