
     Program PWSCF v.7.1 starts on 29Dec2024 at 17:43:50 

     This program is part of the open-source Quantum ESPRESSO suite
     for quantum simulation of materials; please cite
         "P. Giannozzi et al., J. Phys.:Condens. Matter 21 395502 (2009);
         "P. Giannozzi et al., J. Phys.:Condens. Matter 29 465901 (2017);
         "P. Giannozzi et al., J. Chem. Phys. 152 154105 (2020);
          URL http://www.quantum-espresso.org", 
     in publications or presentations arising from this work. More details at
     http://www.quantum-espresso.org/quote

     Parallel version (MPI), running on     1 processors

     MPI processes distributed on     1 nodes
     0 MiB available memory on the printing compute node when the environment starts

     Waiting for input...
     Reading input from standard input
Warning: card &CELL ignored
Warning: card / ignored

     Current dimensions of program PWSCF are:
     Max number of different atomic species (ntypx) = 10
     Max number of k-points (npk) =  40000
     Max angular momentum in pseudopotentials (lmaxx) =  4
     Message from routine iosys:
     BEWARE:  force calculation with tetrahedra (not recommanded)
     Message from routine iosys:
     BEWARE: stress calculation with tetrahedra (not recommanded)
     file Fe.pbe-spn-kjpaw_psl.1.0.0.UPF: wavefunction(s)  3P 3D renormalized
     file Se.pbe-dn-kjpaw_psl.1.0.0.UPF: wavefunction(s)  4S 4P 3D renormalized

     Subspace diagonalization in iterative solution of the eigenvalue problem:
     a serial algorithm will be used


     G-vector sticks info
     --------------------
     sticks:   dense  smooth     PW     G-vecs:    dense   smooth      PW
     Sum         401     317    109                 5887     4169     847

     Using Slab Decomposition



     bravais-lattice index     =            0
     lattice parameter (alat)  =       5.7523  a.u.
     unit-cell volume          =     190.3406 (a.u.)^3
     number of atoms/cell      =            2
     number of atomic types    =            2
     number of electrons       =        32.00
     number of Kohn-Sham states=           20
     kinetic-energy cutoff     =      30.0000  Ry
     charge density cutoff     =     150.0000  Ry
     scf convergence threshold =      1.0E-03
     mixing beta               =       0.7000
     number of iterations used =            8  plain     mixing
     energy convergence thresh.=      0.0E+00
     force convergence thresh. =      0.0E+00
     Exchange-correlation= SLA  PW   PBX  PBC
                           (   1   4   3   4   0   0   0)
     nstep                     =           50


     celldm(1)=   5.752330  celldm(2)=   0.000000  celldm(3)=   0.000000
     celldm(4)=   0.000000  celldm(5)=   0.000000  celldm(6)=   0.000000

     crystal axes: (cart. coord. in units of alat)
               a(1) = (   1.000000   0.000000   0.000000 )  
               a(2) = (  -0.000000   1.000000   0.000000 )  
               a(3) = (   0.000000   0.000000   1.000000 )  

     reciprocal axes: (cart. coord. in units 2 pi/alat)
               b(1) = (  1.000000  0.000000 -0.000000 )  
               b(2) = (  0.000000  1.000000  0.000000 )  
               b(3) = (  0.000000 -0.000000  1.000000 )  


     PseudoPot. # 1 for Fe read from file:
     ./pseudo/Fe.pbe-spn-kjpaw_psl.1.0.0.UPF
     MD5 check sum: fc81f059e5c5069939230b1155715ae8
     Pseudo is Projector augmented-wave + core cor, Zval = 16.0
     Generated using &quot;atomic&quot; code by A. Dal Corso  v.6.3
     Shape of augmentation charge: PSQ
     Using radial grid of 1191 points,  6 beta functions with: 
                l(1) =   0
                l(2) =   0
                l(3) =   1
                l(4) =   1
                l(5) =   2
                l(6) =   2
     Q(r) pseudized with 0 coefficients 


     PseudoPot. # 2 for Se read from file:
     ./pseudo/Se.pbe-dn-kjpaw_psl.1.0.0.UPF
     MD5 check sum: ac240dd2bae32a30e0bf3a38df9c8785
     Pseudo is Projector augmented-wave + core cor, Zval = 16.0
     Generated using &quot;atomic&quot; code by A. Dal Corso  v.6.3
     Shape of augmentation charge: PSQ
     Using radial grid of 1211 points,  6 beta functions with: 
                l(1) =   0
                l(2) =   0
                l(3) =   1
                l(4) =   1
                l(5) =   2
                l(6) =   2
     Q(r) pseudized with 0 coefficients 


     atomic species   valence    mass     pseudopotential
        Fe            16.00    55.84500     Fe( 1.00)
        Se            16.00    78.96000     Se( 1.00)

     No symmetry found



   Cartesian axes

     site n.     atom                  positions (alat units)
         1           Fe  tau(   1) = (   0.0000000   0.0000000   0.0000000  )
         2           Se  tau(   2) = (   0.5000000   0.5000000   0.5000000  )

     number of k points=    36 (tetrahedron method)
                       cart. coord. in units 2pi/alat
        k(    1) = (   0.0000000   0.0000000   0.0000000), wk =   0.0312500
        k(    2) = (   0.0000000   0.0000000   0.2500000), wk =   0.0625000
        k(    3) = (   0.0000000   0.0000000  -0.5000000), wk =   0.0312500
        k(    4) = (   0.0000000   0.2500000   0.0000000), wk =   0.0625000
        k(    5) = (   0.0000000   0.2500000   0.2500000), wk =   0.0625000
        k(    6) = (   0.0000000   0.2500000  -0.5000000), wk =   0.0625000
        k(    7) = (   0.0000000   0.2500000  -0.2500000), wk =   0.0625000
        k(    8) = (   0.0000000  -0.5000000   0.0000000), wk =   0.0312500
        k(    9) = (   0.0000000  -0.5000000   0.2500000), wk =   0.0625000
        k(   10) = (   0.0000000  -0.5000000  -0.5000000), wk =   0.0312500
        k(   11) = (   0.2500000   0.0000000   0.0000000), wk =   0.0625000
        k(   12) = (   0.2500000   0.0000000   0.2500000), wk =   0.0625000
        k(   13) = (   0.2500000   0.0000000  -0.5000000), wk =   0.0625000
        k(   14) = (   0.2500000   0.0000000  -0.2500000), wk =   0.0625000
        k(   15) = (   0.2500000   0.2500000   0.0000000), wk =   0.0625000
        k(   16) = (   0.2500000   0.2500000   0.2500000), wk =   0.0625000
        k(   17) = (   0.2500000   0.2500000  -0.5000000), wk =   0.0625000
        k(   18) = (   0.2500000   0.2500000  -0.2500000), wk =   0.0625000
        k(   19) = (   0.2500000  -0.5000000   0.0000000), wk =   0.0625000
        k(   20) = (   0.2500000  -0.5000000   0.2500000), wk =   0.0625000
        k(   21) = (   0.2500000  -0.5000000  -0.5000000), wk =   0.0625000
        k(   22) = (   0.2500000  -0.5000000  -0.2500000), wk =   0.0625000
        k(   23) = (   0.2500000  -0.2500000   0.0000000), wk =   0.0625000
        k(   24) = (   0.2500000  -0.2500000   0.2500000), wk =   0.0625000
        k(   25) = (   0.2500000  -0.2500000  -0.5000000), wk =   0.0625000
        k(   26) = (   0.2500000  -0.2500000  -0.2500000), wk =   0.0625000
        k(   27) = (  -0.5000000   0.0000000   0.0000000), wk =   0.0312500
        k(   28) = (  -0.5000000   0.0000000   0.2500000), wk =   0.0625000
        k(   29) = (  -0.5000000   0.0000000  -0.5000000), wk =   0.0312500
        k(   30) = (  -0.5000000   0.2500000   0.0000000), wk =   0.0625000
        k(   31) = (  -0.5000000   0.2500000   0.2500000), wk =   0.0625000
        k(   32) = (  -0.5000000   0.2500000  -0.5000000), wk =   0.0625000
        k(   33) = (  -0.5000000   0.2500000  -0.2500000), wk =   0.0625000
        k(   34) = (  -0.5000000  -0.5000000   0.0000000), wk =   0.0312500
        k(   35) = (  -0.5000000  -0.5000000   0.2500000), wk =   0.0625000
        k(   36) = (  -0.5000000  -0.5000000  -0.5000000), wk =   0.0312500

     Dense  grid:     5887 G-vectors     FFT dimensions: (  24,  24,  24)

     Smooth grid:     4169 G-vectors     FFT dimensions: (  24,  24,  24)

     Estimated max dynamical RAM per process >      29.84 MB

     Check: negative core charge=   -0.000042

     Initial potential from superposition of free atoms

     starting charge      31.9995, renormalised to      32.0000
     Starting wfcs are   19 randomized atomic wfcs +    1 random wfcs
     Checking if some PAW data can be deallocated... 

     total cpu time spent up to now is        0.7 secs

     Self-consistent Calculation

     iteration #  1     ecut=    30.00 Ry     beta= 0.70
     Davidson diagonalization with overlap
     ethr =  1.00E-02,  avg # of iterations =  4.4

     negative rho (up, down):  8.436E-03 0.000E+00

     total cpu time spent up to now is        1.3 secs

     total energy              =    -727.14730928 Ry
     estimated scf accuracy    <       0.70653015 Ry

     iteration #  2     ecut=    30.00 Ry     beta= 0.70
     Davidson diagonalization with overlap
     ethr =  2.21E-03,  avg # of iterations =  3.0

     negative rho (up, down):  7.272E-03 0.000E+00

     total cpu time spent up to now is        1.9 secs

     total energy              =    -726.43517260 Ry
     estimated scf accuracy    <       6.97724003 Ry

     iteration #  3     ecut=    30.00 Ry     beta= 0.70
     Davidson diagonalization with overlap
     ethr =  2.21E-03,  avg # of iterations =  2.9

     negative rho (up, down):  7.855E-03 0.000E+00

     total cpu time spent up to now is        2.4 secs

     total energy              =    -727.41444681 Ry
     estimated scf accuracy    <       0.45417152 Ry

     iteration #  4     ecut=    30.00 Ry     beta= 0.70
     Davidson diagonalization with overlap
     ethr =  1.42E-03,  avg # of iterations =  1.0

     negative rho (up, down):  8.794E-03 0.000E+00

     total cpu time spent up to now is        2.9 secs

     total energy              =    -727.45867348 Ry
     estimated scf accuracy    <       0.00403762 Ry

     iteration #  5     ecut=    30.00 Ry     beta= 0.70
     Davidson diagonalization with overlap
     ethr =  1.26E-05,  avg # of iterations =  2.8

     negative rho (up, down):  8.914E-03 0.000E+00

     total cpu time spent up to now is        3.4 secs

     End of self-consistent calculation

          k = 0.0000 0.0000 0.0000 (   515 PWs)   bands (ev):

   -74.0831 -38.3810 -38.3378 -38.3259 -33.9459 -33.9451 -33.9441 -33.4332
   -33.4317  -0.3808  14.8576  14.8953  14.9644  14.9722  15.0083  16.3332
    16.3457  16.3651  19.3146  24.1170

          k = 0.0000 0.0000 0.2500 (   526 PWs)   bands (ev):

   -74.1040 -38.6891 -38.4668 -38.4222 -34.1512 -34.1502 -33.9719 -33.9690
   -33.6183   0.3381  10.3239  14.2164  14.2283  14.9924  15.9631  16.3517
    17.4752  17.4918  21.1338  23.7621

          k = 0.0000 0.0000-0.5000 (   498 PWs)   bands (ev):

   -74.0462 -38.3602 -38.0403 -37.9956 -33.6181 -33.6169 -33.3780 -33.1248
   -33.1168   1.3872   7.5946  14.1232  14.1339  15.8671  17.5674  17.6081
    19.3662  19.3817  21.9154  25.7855

          k = 0.0000 0.2500 0.0000 (   526 PWs)   bands (ev):

   -74.1040 -38.7103 -38.4386 -38.4291 -34.1511 -34.1496 -33.9726 -33.9684
   -33.6189   0.3376  10.3273  14.2175  14.2195  15.0021  15.9521  16.3639
    17.4782  17.4814  21.1300  23.7616

          k = 0.0000 0.2500 0.2500 (   533 PWs)   bands (ev):

   -74.1169 -38.7004 -38.6598 -38.5135 -34.3211 -34.2979 -34.0810 -34.0704
   -33.7501   1.0043  10.6970  11.1718  14.4374  15.1879  15.5467  16.0952
    16.6437  18.0603  22.3198  23.5551

          k = 0.0000 0.2500-0.5000 (   524 PWs)   bands (ev):

   -74.0972 -38.7076 -38.5210 -38.2915 -34.3127 -34.0965 -33.9303 -33.8635
   -33.5080   1.9412   8.4112  11.8224  14.4606  15.2786  16.1637  16.4292
    17.0341  18.3749  20.1747  23.9082

          k = 0.0000 0.2500-0.2500 (   533 PWs)   bands (ev):

   -74.1169 -38.7006 -38.6593 -38.5136 -34.3218 -34.2979 -34.0804 -34.0705
   -33.7502   1.0043  10.6953  11.1750  14.4267  15.1720  15.5673  16.0959
    16.6597  18.0497  22.3199  23.5521

          k = 0.0000-0.5000 0.0000 (   498 PWs)   bands (ev):

   -74.0461 -38.3810 -38.0122 -38.0027 -33.6178 -33.6162 -33.3776 -33.1255
   -33.1174   1.3855   7.5998  14.1230  14.1254  15.8776  17.5825  17.5934
    19.3677  19.3712  21.9073  25.7883

          k = 0.0000-0.5000 0.2500 (   524 PWs)   bands (ev):

   -74.0971 -38.7281 -38.4997 -38.2921 -34.3125 -34.0958 -33.9303 -33.8642
   -33.5081   1.9401   8.4169  11.8172  14.4524  15.2882  16.1764  16.4180
    17.0333  18.3702  20.1771  23.9037

          k = 0.0000-0.5000-0.5000 (   536 PWs)   bands (ev):

   -74.1231 -38.7675 -38.7266 -38.5550 -34.5861 -34.3933 -34.3924 -33.8262
   -33.6844   2.6922   9.7189   9.7271  14.0907  15.1463  15.1698  15.9490
    16.6214  17.3174  18.6543  26.8548

          k = 0.2500 0.0000 0.0000 (   526 PWs)   bands (ev):

   -74.1041 -38.6814 -38.4674 -38.4294 -34.1504 -34.1496 -33.9735 -33.9677
   -33.6196   0.3379  10.3255  14.2136  14.2261  14.9974  15.9604  16.3562
    17.4740  17.4895  21.1436  23.7547

          k = 0.2500 0.0000 0.2500 (   533 PWs)   bands (ev):

   -74.1170 -38.6747 -38.6600 -38.5390 -34.3220 -34.2972 -34.0811 -34.0695
   -33.7509   1.0045  10.6914  11.1784  14.4296  15.1760  15.5536  16.1061
    16.6591  18.0486  22.3210  23.5499

          k = 0.2500 0.0000-0.5000 (   524 PWs)   bands (ev):

   -74.0973 -38.7067 -38.4948 -38.3186 -34.3121 -34.0976 -33.9294 -33.8635
   -33.5086   1.9410   8.4122  11.8237  14.4560  15.2805  16.1641  16.4331
    17.0424  18.3667  20.1622  23.9129

          k = 0.2500 0.0000-0.2500 (   533 PWs)   bands (ev):

   -74.1170 -38.6742 -38.6606 -38.5390 -34.3216 -34.2972 -34.0814 -34.0699
   -33.7504   1.0044  10.6945  11.1762  14.4301  15.1765  15.5521  16.1057
    16.6575  18.0498  22.3187  23.5524

          k = 0.2500 0.2500 0.0000 (   533 PWs)   bands (ev):

   -74.1169 -38.6996 -38.6525 -38.5217 -34.3220 -34.2966 -34.0816 -34.0693
   -33.7510   1.0039  10.6967  11.1748  14.4362  15.1902  15.5489  16.0949
    16.6429  18.0563  22.3188  23.5534

          k = 0.2500 0.2500 0.2500 (   528 PWs)   bands (ev):

   -74.1044 -38.7163 -38.4962 -38.4517 -34.1679 -34.1668 -34.1120 -33.8186
   -33.8180   1.6466  11.4740  11.4782  11.5490  15.3092  15.3299  16.2463
    17.5154  17.5172  22.0920  24.1577

          k = 0.2500 0.2500-0.5000 (   532 PWs)   bands (ev):

   -74.1095 -38.6684 -38.5997 -38.5446 -34.2423 -34.0860 -34.0498 -34.0263
   -34.0098   2.5442   9.0582  11.6627  12.8791  15.2528  15.4308  15.9363
    16.5999  18.3478  20.7018  21.2067

          k = 0.2500 0.2500-0.2500 (   528 PWs)   bands (ev):

   -74.1043 -38.7357 -38.4824 -38.4460 -34.1682 -34.1668 -34.1118 -33.8183
   -33.8180   1.6464  11.4787  11.4795  11.5467  15.3026  15.3252  16.2342
    17.5267  17.5289  22.0914  24.1590

          k = 0.2500-0.5000 0.0000 (   524 PWs)   bands (ev):

   -74.0972 -38.7282 -38.4917 -38.3001 -34.3114 -34.0974 -33.9287 -33.8642
   -33.5093   1.9394   8.4173  11.8203  14.4545  15.2910  16.1766  16.4202
    17.0315  18.3644  20.1686  23.9043

          k = 0.2500-0.5000 0.2500 (   532 PWs)   bands (ev):

   -74.1095 -38.6889 -38.5696 -38.5542 -34.2418 -34.0866 -34.0497 -34.0256
   -34.0105   2.5431   9.0646  11.6621  12.8735  15.2624  15.4302  15.9203
    16.6004  18.3519  20.7009  21.2192

          k = 0.2500-0.5000-0.5000 (   536 PWs)   bands (ev):

   -74.1165 -38.7265 -38.6425 -38.6066 -34.4229 -34.2347 -34.0691 -34.0682
   -33.9923   3.3714   9.9355   9.9443  12.7207  14.6045  16.0122  16.0329
    16.5087  18.1120  18.2318  22.1665

          k = 0.2500-0.5000-0.2500 (   532 PWs)   bands (ev):

   -74.1095 -38.6895 -38.5712 -38.5519 -34.2417 -34.0866 -34.0494 -34.0259
   -34.0106   2.5430   9.0643  11.6622  12.8738  15.2638  15.4309  15.9219
    16.5984  18.3496  20.7046  21.2157

          k = 0.2500-0.2500 0.0000 (   533 PWs)   bands (ev):

   -74.1169 -38.6998 -38.6520 -38.5218 -34.3223 -34.2966 -34.0813 -34.0692
   -33.7513   1.0039  10.6925  11.1796  14.4266  15.1758  15.5687  16.0955
    16.6578  18.0459  22.3212  23.5486

          k = 0.2500-0.2500 0.2500 (   528 PWs)   bands (ev):

   -74.1042 -38.7639 -38.4535 -38.4464 -34.1676 -34.1668 -34.1114 -33.8187
   -33.8186   1.6465  11.4795  11.4833  11.5430  15.3059  15.3100  16.2213
    17.5397  17.5419  22.0872  24.1666

          k = 0.2500-0.2500-0.5000 (   532 PWs)   bands (ev):

   -74.1095 -38.6679 -38.5880 -38.5569 -34.2423 -34.0860 -34.0500 -34.0260
   -34.0098   2.5441   9.0593  11.6693  12.8760  15.2519  15.4157  15.9185
    16.6162  18.3647  20.6941  21.2149

          k = 0.2500-0.2500-0.2500 (   528 PWs)   bands (ev):

   -74.1043 -38.7367 -38.4862 -38.4412 -34.1679 -34.1669 -34.1121 -33.8185
   -33.8178   1.6465  11.4751  11.4821  11.5466  15.3034  15.3254  16.2351
    17.5260  17.5281  22.0904  24.1657

          k =-0.5000 0.0000 0.0000 (   498 PWs)   bands (ev):

   -74.0463 -38.3526 -38.0410 -38.0027 -33.6170 -33.6165 -33.3767 -33.1264
   -33.1181   1.3864   7.5968  14.1184  14.1313  15.8763  17.5734  17.6042
    19.3646  19.3792  21.9292  25.7895

          k =-0.5000 0.0000 0.2500 (   524 PWs)   bands (ev):

   -74.0974 -38.6990 -38.5024 -38.3189 -34.3118 -34.0960 -33.9294 -33.8651
   -33.5089   1.9405   8.4149  11.8204  14.4521  15.2833  16.1695  16.4299
    17.0436  18.3669  20.1649  23.9168

          k =-0.5000 0.0000-0.5000 (   536 PWs)   bands (ev):

   -74.1232 -38.7408 -38.7272 -38.5813 -34.5854 -34.3941 -34.3925 -33.8253
   -33.6851   2.6916   9.7233   9.7280  14.0819  15.1522  15.1560  15.9631
    16.6291  17.3128  18.6396  26.8577

          k =-0.5000 0.2500 0.0000 (   524 PWs)   bands (ev):

   -74.0973 -38.7000 -38.5205 -38.2997 -34.3113 -34.0965 -33.9287 -33.8651
   -33.5095   1.9399   8.4143  11.8222  14.4587  15.2842  16.1693  16.4281
    17.0336  18.3693  20.1689  23.9127

          k =-0.5000 0.2500 0.2500 (   532 PWs)   bands (ev):

   -74.1095 -38.6617 -38.5999 -38.5511 -34.2410 -34.0873 -34.0489 -34.0257
   -34.0114   2.5435   9.0625  11.6579  12.8780  15.2562  15.4342  15.9355
    16.5986  18.3459  20.6992  21.2043

          k =-0.5000 0.2500-0.5000 (   536 PWs)   bands (ev):

   -74.1164 -38.7548 -38.6146 -38.6060 -34.4236 -34.2340 -34.0699 -34.0683
   -33.9914   3.3711   9.9385   9.9450  12.7198  14.5912  16.0185  16.0230
    16.5233  18.0951  18.2391  22.1713

          k =-0.5000 0.2500-0.2500 (   532 PWs)   bands (ev):

   -74.1095 -38.6610 -38.5872 -38.5646 -34.2411 -34.0873 -34.0494 -34.0251
   -34.0114   2.5432   9.0635  11.6659  12.8748  15.2570  15.4166  15.9163
    16.6157  18.3629  20.6948  21.2102

          k =-0.5000-0.5000 0.0000 (   536 PWs)   bands (ev):

   -74.1231 -38.7667 -38.7193 -38.5633 -34.5849 -34.3941 -34.3931 -33.8246
   -33.6858   2.6900   9.7243   9.7294  14.0926  15.1493  15.1704  15.9501
    16.6173  17.3092  18.6475  27.0874

          k =-0.5000-0.5000 0.2500 (   536 PWs)   bands (ev):

   -74.1164 -38.7335 -38.6424 -38.5995 -34.4242 -34.2334 -34.0698 -34.0690
   -33.9907   3.3699   9.9417   9.9465  12.7133  14.6030  16.0145  16.0342
    16.5105  18.1029  18.2287  22.1654

          k =-0.5000-0.5000-0.5000 (   552 PWs)   bands (ev):

   -74.1421 -38.8847 -38.8415 -38.8296 -34.5187 -34.5172 -34.3355 -34.3348
   -34.3338   4.3747  10.0644  10.0721  10.0774  16.0789  16.0954  17.8358
    17.8616  17.9234  17.9373  17.9617

     the Fermi energy is    16.6528 ev

!    total energy              =    -727.45936895 Ry
     estimated scf accuracy    <       0.00057071 Ry

     convergence has been achieved in   5 iterations

     negative rho (up, down):  8.914E-03 0.000E+00

     Forces acting on atoms (cartesian axes, Ry/au):

     atom    1 type  1   force =    -0.00969455    0.00032132    0.00013892
     atom    2 type  2   force =     0.00969455   -0.00032132   -0.00013892

     Total force =     0.013719     Total SCF correction =     0.003887
     SCF correction compared to forces is large: reduce conv_thr to get better values


     Computing stress (Cartesian axis) and pressure


     negative rho (up, down):  8.914E-03 0.000E+00
          total   stress  (Ry/bohr**3)                   (kbar)     P=   -13086.66
  -0.08884220   0.00030399  -0.00009385       -13069.14       44.72      -13.81
   0.00030399  -0.08913301   0.00032972           44.72   -13111.92       48.50
  -0.00009385   0.00032972  -0.08890881          -13.81       48.50   -13078.94


     Molecular Dynamics Calculation

     Starting temperature  =    10.00 K

     temperature is set once at start

     mass Fe               =    55.84
     mass Se               =    78.96
     Time step             =    20.00 a.u.,  0.9676 femto-seconds

     Entering Dynamics:    iteration =     1
                           time      =   0.0010 pico-seconds


ATOMIC_POSITIONS (angstrom)
Fe            0.0004217805        0.0001157624        0.0001909792
Se            1.5217026929        1.5219191263        1.5218659287


     kinetic energy (Ekin) =           0.00009500 Ry
     temperature           =          10.00000000 K 
     Ekin + Etot (const)   =        -727.45927395 Ry
     Ions kinetic stress =            0.05 (kbar)
                                      0.12           0.03           0.05
                                      0.03           0.01           0.01
                                      0.05           0.01           0.02



     Linear momentum :    0.0000000000    0.0000000000   -0.0000000000

     Writing config-only to output data dir ./work/try_0/calculation _try_0.save/
     NEW-OLD atomic charge density approx. for the potential

     Check: negative core charge=   -0.000042

     negative rho (up, down):  8.914E-03 0.000E+00

     total cpu time spent up to now is        3.9 secs

     Self-consistent Calculation

     iteration #  1     ecut=    30.00 Ry     beta= 0.70
     Davidson diagonalization with overlap
     ethr =  1.00E-06,  avg # of iterations =  4.3

     negative rho (up, down):  9.075E-03 0.000E+00

     total cpu time spent up to now is        4.6 secs

     total energy              =    -727.45526022 Ry
     estimated scf accuracy    <       0.00692178 Ry

     iteration #  2     ecut=    30.00 Ry     beta= 0.70
     Davidson diagonalization with overlap
     ethr =  2.16E-05,  avg # of iterations =  3.1

     negative rho (up, down):  8.929E-03 0.000E+00

     total cpu time spent up to now is        5.2 secs

     total energy              =    -727.44659130 Ry
     estimated scf accuracy    <       0.10643326 Ry

     iteration #  3     ecut=    30.00 Ry     beta= 0.70
     Davidson diagonalization with overlap
     ethr =  2.16E-05,  avg # of iterations =  3.1

     negative rho (up, down):  8.982E-03 0.000E+00

     total cpu time spent up to now is        5.7 secs

     End of self-consistent calculation

          k = 0.0000 0.0000 0.0000 (   515 PWs)   bands (ev):

   -74.0076 -38.3213 -38.2609 -38.2447 -34.0148 -34.0137 -34.0118 -33.5019
   -33.5001  -0.3995  14.8801  14.9269  14.9473  14.9597  15.0070  16.3825
    16.4024  16.4306  19.3147  24.1299

          k = 0.0000 0.0000 0.2500 (   526 PWs)   bands (ev):

   -74.0285 -38.6171 -38.3996 -38.3447 -34.2193 -34.2180 -34.0402 -34.0377
   -33.6867   0.3182  10.3166  14.2281  14.2411  15.0353  16.0090  16.4078
    17.4997  17.5204  21.1370  23.7653

          k = 0.0000 0.0000-0.5000 (   498 PWs)   bands (ev):

   -73.9708 -38.2890 -37.9749 -37.9194 -33.6849 -33.6840 -33.4458 -33.1926
   -33.1851   1.3645   7.5886  14.1355  14.1475  15.9135  17.6205  17.6678
    19.3879  19.4066  21.9157  23.3989

          k = 0.0000 0.2500 0.0000 (   526 PWs)   bands (ev):

   -74.0284 -38.6427 -38.3638 -38.3548 -34.2190 -34.2167 -34.0417 -34.0364
   -33.6882   0.3174  10.3238  14.2272  14.2294  15.0488  15.9938  16.4247
    17.5032  17.5059  21.1316  23.7630

          k = 0.0000 0.2500 0.2500 (   533 PWs)   bands (ev):

   -74.0413 -38.6393 -38.5785 -38.4392 -34.3897 -34.3665 -34.1486 -34.1385
   -33.8187   0.9830  10.6924  11.1652  14.4554  15.2407  15.5962  16.1436
    16.6852  18.0846  22.3214  23.5650

          k = 0.0000 0.2500-0.5000 (   524 PWs)   bands (ev):

   -74.0217 -38.6362 -38.4495 -38.2180 -34.3814 -34.1642 -33.9984 -33.9315
   -33.5768   1.9175   8.4036  11.8179  14.4865  15.3229  16.2154  16.4864
    17.0787  18.3814  20.1909  23.9060

          k = 0.0000 0.2500-0.2500 (   533 PWs)   bands (ev):

   -74.0414 -38.6401 -38.5774 -38.4393 -34.3903 -34.3664 -34.1481 -34.1381
   -33.8193   0.9829  10.6911  11.1690  14.4389  15.2164  15.6295  16.1442
    16.7094  18.0663  22.3230  23.5594

          k = 0.0000-0.5000 0.0000 (   498 PWs)   bands (ev):

   -73.9707 -38.3141 -37.9393 -37.9295 -33.6847 -33.6824 -33.4446 -33.1942
   -33.1866   1.3614   7.5990  14.1328  14.1360  15.9284  17.6421  17.6483
    19.3895  19.3915  21.9003  23.3928

          k = 0.0000-0.5000 0.2500 (   524 PWs)   bands (ev):

   -74.0216 -38.6607 -38.4237 -38.2190 -34.3811 -34.1626 -33.9984 -33.9331
   -33.5772   1.9155   8.4147  11.8079  14.4746  15.3351  16.2334  16.4729
    17.0773  18.3747  20.1949  23.8973

          k = 0.0000-0.5000-0.5000 (   536 PWs)   bands (ev):

   -74.0475 -38.7064 -38.6445 -38.4799 -34.6548 -34.4622 -34.4606 -33.8943
   -33.7535   2.6663   9.7053   9.7197  14.1228  15.1930  15.2299  16.0090
    16.6698  17.2895  18.6933  26.8468

          k = 0.2500 0.0000 0.0000 (   526 PWs)   bands (ev):

   -74.0286 -38.6091 -38.4047 -38.3477 -34.2186 -34.2171 -34.0417 -34.0367
   -33.6880   0.3183  10.3154  14.2243  14.2417  15.0393  16.0078  16.4129
    17.4964  17.5204  21.1483  23.7593

          k = 0.2500 0.0000 0.2500 (   533 PWs)   bands (ev):

   -74.0415 -38.6079 -38.5846 -38.4645 -34.3909 -34.3667 -34.1478 -34.1375
   -33.8194   0.9838  10.6843  11.1705  14.4458  15.2203  15.6079  16.1566
    16.7095  18.0701  22.3216  23.5608

          k = 0.2500 0.0000-0.5000 (   524 PWs)   bands (ev):

   -74.0218 -38.6341 -38.4225 -38.2472 -34.3815 -34.1646 -33.9982 -33.9315
   -33.5766   1.9180   8.4055  11.8148  14.4805  15.3203  16.2162  16.4901
    17.0902  18.3755  20.1763  23.9145

          k = 0.2500 0.0000-0.2500 (   533 PWs)   bands (ev):

   -74.0414 -38.6068 -38.5858 -38.4644 -34.3892 -34.3667 -34.1494 -34.1386
   -33.8182   0.9838  10.6853  11.1698  14.4471  15.2222  15.6054  16.1562
    16.7068  18.0725  22.3184  23.5639

          k = 0.2500 0.2500 0.0000 (   533 PWs)   bands (ev):

   -74.0414 -38.6358 -38.5754 -38.4457 -34.3901 -34.3652 -34.1499 -34.1373
   -33.8195   0.9829  10.6895  11.1689  14.4539  15.2402  15.6011  16.1436
    16.6867  18.0808  22.3192  23.5639

          k = 0.2500 0.2500 0.2500 (   528 PWs)   bands (ev):

   -74.0289 -38.6337 -38.4371 -38.3766 -34.2372 -34.2348 -34.1803 -33.8865
   -33.8862   1.6246  11.4684  11.4721  11.5401  15.3569  15.3870  16.3041
    17.5582  17.5598  22.0903  24.1659

          k = 0.2500 0.2500-0.5000 (   532 PWs)   bands (ev):

   -74.0339 -38.6016 -38.5282 -38.4661 -34.3113 -34.1546 -34.1174 -34.0951
   -34.0775   2.5200   9.0504  11.6637  12.8627  15.2985  15.4774  15.9919
    16.6555  18.3858  20.7159  21.2230

          k = 0.2500 0.2500-0.2500 (   528 PWs)   bands (ev):

   -74.0288 -38.6661 -38.4170 -38.3640 -34.2371 -34.2353 -34.1810 -33.8860
   -33.8855   1.6244  11.4731  11.4759  11.5364  15.3482  15.3796  16.2852
    17.5757  17.5772  22.0883  24.1694

          k = 0.2500-0.5000 0.0000 (   524 PWs)   bands (ev):

   -74.0217 -38.6603 -38.4170 -38.2262 -34.3800 -34.1644 -33.9966 -33.9331
   -33.5783   1.9150   8.4155  11.8090  14.4771  15.3362  16.2338  16.4749
    17.0749  18.3708  20.1852  23.8995

          k = 0.2500-0.5000 0.2500 (   532 PWs)   bands (ev):

   -74.0339 -38.6242 -38.4939 -38.4778 -34.3101 -34.1561 -34.1180 -34.0928
   -34.0790   2.5179   9.0621  11.6599  12.8555  15.3120  15.4781  15.9682
    16.6580  18.3911  20.7171  21.2392

          k = 0.2500-0.5000-0.5000 (   536 PWs)   bands (ev):

   -74.0409 -38.6569 -38.5771 -38.5243 -34.4921 -34.3033 -34.1377 -34.1361
   -34.0603   3.3446   9.9259   9.9405  12.7149  14.6464  16.0491  16.0818
    16.5684  18.1431  18.2693  22.1871

          k = 0.2500-0.5000-0.2500 (   532 PWs)   bands (ev):

   -74.0339 -38.6253 -38.4936 -38.4769 -34.3099 -34.1561 -34.1164 -34.0944
   -34.0792   2.5178   9.0618  11.6611  12.8540  15.3130  15.4802  15.9720
    16.6538  18.3877  20.7211  21.2363

          k = 0.2500-0.2500 0.0000 (   533 PWs)   bands (ev):

   -74.0414 -38.6366 -38.5744 -38.4458 -34.3915 -34.3652 -34.1485 -34.1365
   -33.8204   0.9829  10.6876  11.1723  14.4410  15.2208  15.6286  16.1439
    16.7059  18.0651  22.3232  23.5574

          k = 0.2500-0.2500 0.2500 (   528 PWs)   bands (ev):

   -74.0286 -38.7037 -38.3766 -38.3664 -34.2359 -34.2347 -34.1790 -33.8880
   -33.8873   1.6244  11.4740  11.4792  11.5349  15.3522  15.3587  16.2659
    17.5938  17.5953  22.0849  24.1776

          k = 0.2500-0.2500-0.5000 (   532 PWs)   bands (ev):

   -74.0339 -38.6003 -38.5159 -38.4797 -34.3115 -34.1546 -34.1186 -34.0938
   -34.0774   2.5199   9.0515  11.6703  12.8619  15.2977  15.4582  15.9666
    16.6772  18.4092  20.7066  21.2319

          k = 0.2500-0.2500-0.2500 (   528 PWs)   bands (ev):

   -74.0288 -38.6612 -38.4244 -38.3615 -34.2362 -34.2360 -34.1805 -33.8866
   -33.8858   1.6245  11.4704  11.4756  11.5378  15.3493  15.3822  16.2890
    17.5716  17.5740  22.0884  24.1788

          k =-0.5000 0.0000 0.0000 (   498 PWs)   bands (ev):

   -73.9709 -38.2812 -37.9799 -37.9223 -33.6843 -33.6830 -33.4445 -33.1944
   -33.1864   1.3648   7.5871  14.1301  14.1479  15.9214  17.6242  17.6672
    19.3846  19.4068  21.9350  25.7836

          k =-0.5000 0.0000 0.2500 (   524 PWs)   bands (ev):

   -74.0219 -38.6263 -38.4306 -38.2469 -34.3812 -34.1629 -33.9982 -33.9333
   -33.5769   1.9182   8.4042  11.8148  14.4772  15.3225  16.2211  16.4874
    17.0920  18.3755  20.1781  23.9216

          k =-0.5000 0.0000-0.5000 (   536 PWs)   bands (ev):

   -74.0476 -38.6726 -38.6519 -38.5066 -34.6550 -34.4627 -34.4603 -33.8942
   -33.7533   2.6680   9.7132   9.7136  14.0997  15.2031  15.2076  16.0258
    16.6823  17.2911  18.6792  26.8579

          k =-0.5000 0.2500 0.0000 (   524 PWs)   bands (ev):

   -74.0218 -38.6281 -38.4509 -38.2248 -34.3800 -34.1642 -33.9967 -33.9333
   -33.5782   1.9172   8.4031  11.8191  14.4857  15.3262  16.2207  16.4856
    17.0782  18.3775  20.1830  23.9152

          k =-0.5000 0.2500 0.2500 (   532 PWs)   bands (ev):

   -74.0340 -38.5939 -38.5334 -38.4686 -34.3101 -34.1559 -34.1170 -34.0938
   -34.0793   2.5200   9.0508  11.6592  12.8652  15.3009  15.4817  15.9936
    16.6529  18.3821  20.7126  21.2168

          k =-0.5000 0.2500-0.5000 (   536 PWs)   bands (ev):

   -74.0408 -38.6895 -38.5375 -38.5310 -34.4919 -34.3035 -34.1382 -34.1358
   -34.0601   3.3458   9.9308   9.9334  12.7208  14.6218  16.0613  16.0657
    16.5859  18.1233  18.2816  22.1869

          k =-0.5000 0.2500-0.2500 (   532 PWs)   bands (ev):

   -74.0340 -38.5923 -38.5205 -38.4833 -34.3102 -34.1559 -34.1173 -34.0934
   -34.0791   2.5196   9.0522  11.6697  12.8624  15.3018  15.4555  15.9626
    16.6792  18.4097  20.7051  21.2259

          k =-0.5000-0.5000 0.0000 (   536 PWs)   bands (ev):

   -74.0476 -38.7027 -38.6415 -38.4868 -34.6536 -34.4630 -34.4615 -33.8926
   -33.7548   2.6650   9.7086   9.7227  14.1193  15.1980  15.2286  16.0106
    16.6657  17.2837  18.6869  26.8453

          k =-0.5000-0.5000 0.2500 (   536 PWs)   bands (ev):

   -74.0409 -38.6649 -38.5718 -38.5214 -34.4934 -34.3020 -34.1384 -34.1371
   -34.0585   3.3437   9.9305   9.9420  12.7098  14.6407  16.0535  16.0823
    16.5707  18.1328  18.2663  22.1734

          k =-0.5000-0.5000-0.5000 (   552 PWs)   bands (ev):

   -74.0665 -38.8251 -38.7648 -38.7484 -34.5878 -34.5860 -34.4041 -34.4031
   -34.4013   4.3451  10.0613  10.0676  10.0777  16.1383  16.1578  17.8300
    17.8523  17.8783  17.9823  18.0121

     the Fermi energy is    16.7063 ev

!    total energy              =    -727.45918668 Ry
     estimated scf accuracy    <       0.00091224 Ry

     convergence has been achieved in   3 iterations

     negative rho (up, down):  8.982E-03 0.000E+00

     Forces acting on atoms (cartesian axes, Ry/au):

     atom    1 type  1   force =    -0.00395217    0.00161658   -0.00144590
     atom    2 type  2   force =     0.00395217   -0.00161658    0.00144590

     Total force =     0.006376     Total SCF correction =     0.007393
     SCF correction compared to forces is large: reduce conv_thr to get better values


     Computing stress (Cartesian axis) and pressure


     negative rho (up, down):  8.982E-03 0.000E+00
          total   stress  (Ry/bohr**3)                   (kbar)     P=   -13016.01
  -0.08835546   0.00038176  -0.00014152       -12997.54       56.16      -20.82
   0.00038176  -0.08871600   0.00045368           56.16   -13050.57       66.74
  -0.00014152   0.00045368  -0.08837170          -20.82       66.74   -12999.93


     Entering Dynamics:    iteration =     2
                           time      =   0.0019 pico-seconds


ATOMIC_POSITIONS (angstrom)
Fe            0.0008271255        0.0002382475        0.0003759454
Se            1.5214160098        1.5218324978        1.5217351100


     kinetic energy (Ekin) =           0.00008555 Ry
     temperature           =           9.00535998 K 
     Ekin + Etot (const)   =        -727.45910113 Ry
     Ions kinetic stress =            0.04 (kbar)
                                      0.10           0.03           0.05
                                      0.03           0.01           0.01
                                      0.05           0.01           0.02



     Linear momentum :    0.0000000000   -0.0000000000   -0.0000000000

     Writing config-only to output data dir ./work/try_0/calculation _try_0.save/
     NEW-OLD atomic charge density approx. for the potential

     Check: negative core charge=   -0.000042

     negative rho (up, down):  8.981E-03 0.000E+00

     total cpu time spent up to now is        6.2 secs

     Self-consistent Calculation

     iteration #  1     ecut=    30.00 Ry     beta= 0.70
     Davidson diagonalization with overlap
     ethr =  1.00E-06,  avg # of iterations =  5.1

     negative rho (up, down):  8.764E-03 0.000E+00

     total cpu time spent up to now is        6.9 secs

     total energy              =    -727.45106400 Ry
     estimated scf accuracy    <       0.01264078 Ry

     iteration #  2     ecut=    30.00 Ry     beta= 0.70
     Davidson diagonalization with overlap
     ethr =  3.95E-05,  avg # of iterations =  3.3

     negative rho (up, down):  8.944E-03 0.000E+00

     total cpu time spent up to now is        7.6 secs

     total energy              =    -727.42736692 Ry
     estimated scf accuracy    <       0.28999965 Ry

     iteration #  3     ecut=    30.00 Ry     beta= 0.70
     Davidson diagonalization with overlap
     ethr =  3.95E-05,  avg # of iterations =  3.2

     negative rho (up, down):  8.969E-03 0.000E+00

     total cpu time spent up to now is        8.1 secs

     total energy              =    -727.45937956 Ry
     estimated scf accuracy    <       0.00221948 Ry

     iteration #  4     ecut=    30.00 Ry     beta= 0.70
     Davidson diagonalization with overlap
     ethr =  6.94E-06,  avg # of iterations =  1.1

     negative rho (up, down):  8.979E-03 0.000E+00

     total cpu time spent up to now is        8.6 secs

     End of self-consistent calculation

          k = 0.0000 0.0000 0.0000 (   515 PWs)   bands (ev):

   -74.0908 -38.3627 -38.3562 -38.3459 -33.9971 -33.9954 -33.9945 -33.4832
   -33.4830  -0.3887  14.8501  14.8950  14.9579  14.9613  15.0022  16.3369
    16.3404  16.3443  19.3117  24.1139

          k = 0.0000 0.0000 0.2500 (   526 PWs)   bands (ev):

   -74.1117 -38.7036 -38.4534 -38.4415 -34.2010 -34.2005 -34.0234 -34.0191
   -33.6696   0.3287  10.3261  14.2096  14.2124  14.9961  15.9510  16.3488
    17.4717  17.4734  21.1266  23.7597

          k = 0.0000 0.0000-0.5000 (   498 PWs)   bands (ev):

   -74.0539 -38.3754 -38.0269 -38.0152 -33.6674 -33.6668 -33.4278 -33.1761
   -33.1680   1.3743   7.6013  14.1147  14.1188  15.8706  17.5669  17.5931
    19.3597  19.3614  21.9026  23.4054

          k = 0.0000 0.2500 0.0000 (   526 PWs)   bands (ev):

   -74.1117 -38.7019 -38.4556 -38.4410 -34.2022 -34.1997 -34.0234 -34.0188
   -33.6695   0.3290  10.3231  14.2092  14.2153  14.9932  15.9549  16.3482
    17.4704  17.4752  21.1276  23.7614

          k = 0.0000 0.2500 0.2500 (   533 PWs)   bands (ev):

   -74.1246 -38.6872 -38.6807 -38.5261 -34.3721 -34.3482 -34.1319 -34.1208
   -33.8010   0.9943  10.6940  11.1710  14.4209  15.1749  15.5496  16.0923
    16.6464  18.0419  22.3183  23.5486

          k = 0.0000 0.2500-0.5000 (   524 PWs)   bands (ev):

   -74.1049 -38.7217 -38.5150 -38.3037 -34.3630 -34.1466 -33.9803 -33.9150
   -33.5593   1.9280   8.4170  11.8130  14.4460  15.2845  16.1621  16.4183
    17.0271  18.3584  20.1766  23.8978

          k = 0.0000 0.2500-0.2500 (   533 PWs)   bands (ev):

   -74.1246 -38.6866 -38.6814 -38.5260 -34.3729 -34.3482 -34.1310 -34.1202
   -33.8016   0.9943  10.6957  11.1694  14.4222  15.1775  15.5471  16.0920
    16.6435  18.0430  22.3187  23.5488

          k = 0.0000-0.5000 0.0000 (   498 PWs)   bands (ev):

   -74.0539 -38.3737 -38.0291 -38.0147 -33.6686 -33.6661 -33.4279 -33.1756
   -33.1679   1.3754   7.5973  14.1145  14.1223  15.8673  17.5653  17.5972
    19.3584  19.3640  21.9072  23.4080

          k = 0.0000-0.5000 0.2500 (   524 PWs)   bands (ev):

   -74.1049 -38.7201 -38.5167 -38.3037 -34.3630 -34.1470 -33.9803 -33.9146
   -33.5593   1.9287   8.4127  11.8167  14.4473  15.2821  16.1609  16.4209
    17.0276  18.3583  20.1752  23.9004

          k = 0.0000-0.5000-0.5000 (   536 PWs)   bands (ev):

   -74.1308 -38.7539 -38.7481 -38.5671 -34.6366 -34.4444 -34.4434 -33.8762
   -33.7357   2.6783   9.7175   9.7229  14.0995  15.1487  15.1514  15.9456
    16.6152  17.3014  18.6481  26.8458

          k = 0.2500 0.0000 0.0000 (   526 PWs)   bands (ev):

   -74.1118 -38.6903 -38.4569 -38.4513 -34.2013 -34.2003 -34.0236 -34.0190
   -33.6698   0.3296  10.3164  14.2114  14.2140  14.9964  15.9568  16.3507
    17.4709  17.4735  21.1429  23.7576

          k = 0.2500 0.0000 0.2500 (   533 PWs)   bands (ev):

   -74.1247 -38.6854 -38.6710 -38.5377 -34.3739 -34.3480 -34.1305 -34.1192
   -33.8023   0.9948  10.6881  11.1728  14.4251  15.1800  15.5459  16.0920
    16.6449  18.0421  22.3173  23.5483

          k = 0.2500 0.0000-0.5000 (   524 PWs)   bands (ev):

   -74.1050 -38.7217 -38.5035 -38.3153 -34.3628 -34.1472 -33.9797 -33.9150
   -33.5595   1.9281   8.4186  11.8105  14.4482  15.2831  16.1630  16.4207
    17.0264  18.3556  20.1638  23.9041

          k = 0.2500 0.0000-0.2500 (   533 PWs)   bands (ev):

   -74.1247 -38.6857 -38.6707 -38.5377 -34.3715 -34.3480 -34.1329 -34.1209
   -33.8006   0.9947  10.6881  11.1739  14.4212  15.1752  15.5524  16.0926
    16.6490  18.0392  22.3146  23.5499

          k = 0.2500 0.2500 0.0000 (   533 PWs)   bands (ev):

   -74.1247 -38.6833 -38.6715 -38.5393 -34.3725 -34.3481 -34.1315 -34.1204
   -33.8014   0.9950  10.6877  11.1719  14.4240  15.1747  15.5484  16.0947
    16.6476  18.0422  22.3142  23.5510

          k = 0.2500 0.2500 0.2500 (   528 PWs)   bands (ev):

   -74.1120 -38.7427 -38.4725 -38.4691 -34.2186 -34.2172 -34.1620 -33.8697
   -33.8690   1.6363  11.4718  11.4746  11.5419  15.3067  15.3124  16.2279
    17.5186  17.5202  22.0862  24.1590

          k = 0.2500 0.2500-0.5000 (   532 PWs)   bands (ev):

   -74.1172 -38.6799 -38.5874 -38.5656 -34.2926 -34.1375 -34.1000 -34.0763
   -34.0611   2.5308   9.0640  11.6558  12.8652  15.2562  15.4232  15.9171
    16.5968  18.3436  20.7002  21.2150

          k = 0.2500 0.2500-0.2500 (   528 PWs)   bands (ev):

   -74.1120 -38.7431 -38.4775 -38.4637 -34.2192 -34.2175 -34.1630 -33.8685
   -33.8682   1.6361  11.4725  11.4756  11.5416  15.3058  15.3124  16.2250
    17.5205  17.5217  22.0866  24.1524

          k = 0.2500-0.5000 0.0000 (   524 PWs)   bands (ev):

   -74.1050 -38.7200 -38.5036 -38.3169 -34.3629 -34.1472 -33.9801 -33.9146
   -33.5594   1.9292   8.4147  11.8121  14.4494  15.2790  16.1620  16.4236
    17.0270  18.3575  20.1618  23.9088

          k = 0.2500-0.5000 0.2500 (   532 PWs)   bands (ev):

   -74.1172 -38.6782 -38.5901 -38.5646 -34.2928 -34.1374 -34.1014 -34.0753
   -34.0607   2.5317   9.0598  11.6552  12.8693  15.2515  15.4253  15.9208
    16.5974  18.3421  20.6972  21.2130

          k = 0.2500-0.5000-0.5000 (   536 PWs)   bands (ev):

   -74.1242 -38.7329 -38.6342 -38.6285 -34.4744 -34.2851 -34.1200 -34.1190
   -34.0422   3.3572   9.9346   9.9396  12.7097  14.6090  16.0132  16.0164
    16.5054  18.1120  18.2223  22.1566

          k = 0.2500-0.5000-0.2500 (   532 PWs)   bands (ev):

   -74.1172 -38.6782 -38.5854 -38.5693 -34.2926 -34.1374 -34.0990 -34.0777
   -34.0609   2.5315   9.0599  11.6602  12.8661  15.2530  15.4194  15.9144
    16.6019  18.3473  20.6983  21.2131

          k = 0.2500-0.2500 0.0000 (   533 PWs)   bands (ev):

   -74.1247 -38.6835 -38.6713 -38.5393 -34.3725 -34.3481 -34.1316 -34.1204
   -33.8013   0.9951  10.6853  11.1736  14.4239  15.1753  15.5494  16.0948
    16.6476  18.0416  22.3157  23.5495

          k = 0.2500-0.2500 0.2500 (   528 PWs)   bands (ev):

   -74.1120 -38.7409 -38.4780 -38.4654 -34.2182 -34.2171 -34.1614 -33.8701
   -33.8696   1.6363  11.4717  11.4728  11.5428  15.3078  15.3141  16.2290
    17.5164  17.5184  22.0860  24.1663

          k = 0.2500-0.2500-0.5000 (   532 PWs)   bands (ev):

   -74.1172 -38.6799 -38.5851 -38.5679 -34.2926 -34.1375 -34.0999 -34.0764
   -34.0611   2.5308   9.0641  11.6557  12.8648  15.2549  15.4241  15.9166
    16.5966  18.3449  20.6979  21.2172

          k = 0.2500-0.2500-0.2500 (   528 PWs)   bands (ev):

   -74.1120 -38.7488 -38.4717 -38.4638 -34.2192 -34.2180 -34.1636 -33.8679
   -33.8677   1.6362  11.4732  11.4760  11.5398  15.3068  15.3096  16.2232
    17.5220  17.5245  22.0849  24.1632

          k =-0.5000 0.0000 0.0000 (   498 PWs)   bands (ev):

   -74.0541 -38.3623 -38.0305 -38.0248 -33.6676 -33.6666 -33.4275 -33.1762
   -33.1682   1.3777   7.5885  14.1168  14.1194  15.8752  17.5746  17.5899
    19.3600  19.3627  21.9384  23.4070

          k =-0.5000 0.0000 0.2500 (   524 PWs)   bands (ev):

   -74.1051 -38.7085 -38.5167 -38.3153 -34.3627 -34.1470 -33.9797 -33.9151
   -33.5595   1.9303   8.4055  11.8206  14.4485  15.2825  16.1646  16.4198
    17.0304  18.3567  20.1627  23.9197

          k =-0.5000 0.0000-0.5000 (   536 PWs)   bands (ev):

   -74.1309 -38.7525 -38.7378 -38.5789 -34.6364 -34.4453 -34.4429 -33.8756
   -33.7360   2.6785   9.7153   9.7292  14.0868  15.1475  15.1540  15.9484
    16.6135  17.2995  18.6415  26.8510

          k =-0.5000 0.2500 0.0000 (   524 PWs)   bands (ev):

   -74.1051 -38.7085 -38.5151 -38.3170 -34.3628 -34.1466 -33.9802 -33.9151
   -33.5594   1.9307   8.4058  11.8184  14.4485  15.2809  16.1648  16.4200
    17.0304  18.3587  20.1621  23.9218

          k =-0.5000 0.2500 0.2500 (   532 PWs)   bands (ev):

   -74.1172 -38.6667 -38.5883 -38.5780 -34.2924 -34.1377 -34.0995 -34.0767
   -34.0613   2.5326   9.0537  11.6589  12.8730  15.2544  15.4176  15.9174
    16.6019  18.3462  20.6909  21.2024

          k =-0.5000 0.2500-0.5000 (   536 PWs)   bands (ev):

   -74.1242 -38.7444 -38.6329 -38.6183 -34.4746 -34.2848 -34.1210 -34.1186
   -34.0417   3.3574   9.9332   9.9433  12.7088  14.5955  16.0143  16.0206
    16.5093  18.0972  18.2236  22.1559

          k =-0.5000 0.2500-0.2500 (   532 PWs)   bands (ev):

   -74.1172 -38.6667 -38.5936 -38.5726 -34.2925 -34.1376 -34.1004 -34.0758
   -34.0612   2.5326   9.0534  11.6569  12.8748  15.2545  15.4207  15.9195
    16.5988  18.3439  20.6920  21.2009

          k =-0.5000-0.5000 0.0000 (   536 PWs)   bands (ev):

   -74.1309 -38.7503 -38.7384 -38.5805 -34.6365 -34.4442 -34.4436 -33.8760
   -33.7359   2.6797   9.7169   9.7256  14.0804  15.1500  15.1510  15.9515
    16.6143  17.3024  18.6412  26.8548

          k =-0.5000-0.5000 0.2500 (   536 PWs)   bands (ev):

   -74.1242 -38.7461 -38.6307 -38.6188 -34.4745 -34.2849 -34.1199 -34.1193
   -34.0421   3.3582   9.9343   9.9391  12.7120  14.5898  16.0162  16.0195
    16.5123  18.0956  18.2245  22.1723

          k =-0.5000-0.5000-0.5000 (   552 PWs)   bands (ev):

   -74.1498 -38.8664 -38.8599 -38.8495 -34.5690 -34.5688 -34.3867 -34.3851
   -34.3841   4.3597  10.0634  10.0645  10.0697  16.0792  16.0835  17.8245
    17.8289  17.8789  17.9246  17.9461

     the Fermi energy is    16.6457 ev

!    total energy              =    -727.45939807 Ry
     estimated scf accuracy    <       0.00029068 Ry

     convergence has been achieved in   4 iterations

     negative rho (up, down):  8.979E-03 0.000E+00

     Forces acting on atoms (cartesian axes, Ry/au):

     atom    1 type  1   force =    -0.01587709    0.00007276    0.00040780
     atom    2 type  2   force =     0.01587709   -0.00007276   -0.00040780

     Total force =     0.022461     Total SCF correction =     0.019562
     SCF correction compared to forces is large: reduce conv_thr to get better values


     Computing stress (Cartesian axis) and pressure


     negative rho (up, down):  8.979E-03 0.000E+00
          total   stress  (Ry/bohr**3)                   (kbar)     P=   -12920.68
  -0.08769393   0.00006117   0.00016674       -12900.22        9.00       24.53
   0.00006117  -0.08788282  -0.00010520            9.00   -12928.01      -15.48
   0.00016674  -0.00010520  -0.08792226           24.53      -15.48   -12933.81


     Entering Dynamics:    iteration =     3
                           time      =   0.0029 pico-seconds


ATOMIC_POSITIONS (angstrom)
Fe            0.0011664442        0.0003610352        0.0005626075
Se            1.5211760244        1.5217456554        1.5216030920


     kinetic energy (Ekin) =           0.00007300 Ry
     temperature           =           7.68407526 K 
     Ekin + Etot (const)   =        -727.45932506 Ry
     Ions kinetic stress =            0.04 (kbar)
                                      0.08           0.03           0.04
                                      0.03           0.01           0.01
                                      0.04           0.01           0.02



     Linear momentum :    0.0000000000   -0.0000000000   -0.0000000000

     Writing config-only to output data dir ./work/try_0/calculation _try_0.save/
     NEW-OLD atomic charge density approx. for the potential

     Check: negative core charge=   -0.000042

     negative rho (up, down):  8.978E-03 0.000E+00

     total cpu time spent up to now is        9.0 secs

     Self-consistent Calculation

     iteration #  1     ecut=    30.00 Ry     beta= 0.70
     Davidson diagonalization with overlap
     ethr =  1.00E-06,  avg # of iterations =  3.8

     negative rho (up, down):  9.213E-03 0.000E+00

     total cpu time spent up to now is        9.7 secs

     total energy              =    -727.45391094 Ry
     estimated scf accuracy    <       0.00846579 Ry

     iteration #  2     ecut=    30.00 Ry     beta= 0.70
     Davidson diagonalization with overlap
     ethr =  2.65E-05,  avg # of iterations =  3.2

     negative rho (up, down):  9.043E-03 0.000E+00

     total cpu time spent up to now is       10.3 secs

     total energy              =    -727.44230513 Ry
     estimated scf accuracy    <       0.15310566 Ry

     iteration #  3     ecut=    30.00 Ry     beta= 0.70
     Davidson diagonalization with overlap
     ethr =  2.65E-05,  avg # of iterations =  3.0

     negative rho (up, down):  9.048E-03 0.000E+00

     total cpu time spent up to now is       10.9 secs

     End of self-consistent calculation

          k = 0.0000 0.0000 0.0000 (   515 PWs)   bands (ev):

   -74.0451 -38.3422 -38.3014 -38.2878 -34.0173 -34.0167 -34.0149 -33.5049
   -33.5027  -0.3961  14.8641  14.9155  14.9478  14.9589  15.0062  16.3628
    16.3739  16.3968  19.3156  24.1250

          k = 0.0000 0.0000 0.2500 (   526 PWs)   bands (ev):

   -74.0659 -38.6737 -38.4001 -38.3916 -34.2216 -34.2198 -34.0448 -34.0391
   -33.6911   0.3202  10.3291  14.2164  14.2197  15.0301  15.9708  16.3952
    17.4877  17.4896  21.1283  23.7624

          k = 0.0000 0.0000-0.5000 (   498 PWs)   bands (ev):

   -74.0082 -38.3456 -37.9744 -37.9661 -33.6875 -33.6856 -33.4474 -33.1974
   -33.1895   1.3630   7.6068  14.1210  14.1261  15.9071  17.6120  17.6198
    19.3733  19.3749  21.8963  23.3985

          k = 0.0000 0.2500 0.0000 (   526 PWs)   bands (ev):

   -74.0660 -38.6500 -38.4311 -38.3845 -34.2222 -34.2214 -34.0426 -34.0409
   -33.6892   0.3214  10.3186  14.2193  14.2313  15.0153  15.9882  16.3795
    17.4857  17.5022  21.1339  23.7672

          k = 0.0000 0.2500 0.2500 (   533 PWs)   bands (ev):

   -74.0788 -38.6622 -38.6231 -38.4756 -34.3927 -34.3692 -34.1517 -34.1413
   -33.8216   0.9856  10.6942  11.1699  14.4305  15.2007  15.5942  16.1205
    16.6805  18.0549  22.3229  23.5553

          k = 0.0000 0.2500-0.5000 (   524 PWs)   bands (ev):

   -74.0591 -38.6916 -38.4614 -38.2545 -34.3838 -34.1656 -34.0011 -33.9363
   -33.5799   1.9169   8.4220  11.8063  14.4589  15.3179  16.2059  16.4455
    17.0548  18.3640  20.1917  23.8940

          k = 0.0000 0.2500-0.2500 (   533 PWs)   bands (ev):

   -74.0788 -38.6616 -38.6239 -38.4755 -34.3932 -34.3692 -34.1513 -34.1409
   -33.8219   0.9856  10.6956  11.1673  14.4389  15.2133  15.5772  16.1201
    16.6682  18.0642  22.3219  23.5580

          k = 0.0000-0.5000 0.0000 (   498 PWs)   bands (ev):

   -74.0082 -38.3223 -38.0053 -37.9588 -33.6883 -33.6873 -33.4490 -33.1952
   -33.1876   1.3672   7.5922  14.1253  14.1387  15.8905  17.5911  17.6411
    19.3729  19.3893  21.9152  23.4078

          k = 0.0000-0.5000 0.2500 (   524 PWs)   bands (ev):

   -74.0591 -38.6685 -38.4852 -38.2539 -34.3842 -34.1677 -34.0011 -33.9342
   -33.5795   1.9197   8.4063  11.8203  14.4711  15.3048  16.1887  16.4597
    17.0568  18.3698  20.1863  23.9050

          k = 0.0000-0.5000-0.5000 (   536 PWs)   bands (ev):

   -74.0850 -38.7287 -38.6904 -38.5163 -34.6576 -34.4655 -34.4633 -33.8970
   -33.7562   2.6676   9.7064   9.7258  14.1201  15.1739  15.1976  15.9800
    16.6462  17.2903  18.6748  26.8453

          k = 0.2500 0.0000 0.0000 (   526 PWs)   bands (ev):

   -74.0661 -38.6427 -38.4293 -38.3936 -34.2220 -34.2199 -34.0444 -34.0395
   -33.6907   0.3217  10.3145  14.2189  14.2285  15.0212  15.9873  16.3862
    17.4854  17.4983  21.1496  23.7609

          k = 0.2500 0.0000 0.2500 (   533 PWs)   bands (ev):

   -74.0789 -38.6624 -38.6147 -38.4840 -34.3941 -34.3678 -34.1521 -34.1394
   -33.8230   0.9858  10.6883  11.1723  14.4421  15.2190  15.5765  16.1182
    16.6652  18.0636  22.3205  23.5571

          k = 0.2500 0.0000-0.5000 (   524 PWs)   bands (ev):

   -74.0592 -38.6918 -38.4531 -38.2626 -34.3825 -34.1674 -33.9993 -33.9363
   -33.5812   1.9165   8.4234  11.8061  14.4630  15.3175  16.2068  16.4478
    17.0510  18.3600  20.1789  23.8985

          k = 0.2500 0.0000-0.2500 (   533 PWs)   bands (ev):

   -74.0789 -38.6630 -38.6138 -38.4841 -34.3935 -34.3678 -34.1527 -34.1399
   -33.8227   0.9857  10.6897  11.1737  14.4298  15.2011  15.6006  16.1185
    16.6820  18.0504  22.3201  23.5550

          k = 0.2500 0.2500 0.0000 (   533 PWs)   bands (ev):

   -74.0789 -38.6336 -38.6238 -38.5037 -34.3924 -34.3696 -34.1518 -34.1416
   -33.8212   0.9870  10.6845  11.1709  14.4367  15.1991  15.5803  16.1316
    16.6846  18.0582  22.3170  23.5601

          k = 0.2500 0.2500 0.2500 (   528 PWs)   bands (ev):

   -74.0663 -38.6971 -38.4453 -38.4089 -34.2392 -34.2384 -34.1833 -33.8896
   -33.8888   1.6271  11.4705  11.4749  11.5400  15.3294  15.3543  16.2633
    17.5483  17.5497  22.0877  24.1621

          k = 0.2500 0.2500-0.5000 (   532 PWs)   bands (ev):

   -74.0714 -38.6528 -38.5323 -38.5148 -34.3125 -34.1590 -34.1197 -34.0966
   -34.0824   2.5193   9.0687  11.6559  12.8545  15.2921  15.4595  15.9466
    16.6266  18.3666  20.7157  21.2326

          k = 0.2500 0.2500-0.2500 (   528 PWs)   bands (ev):

   -74.0663 -38.7014 -38.4464 -38.4034 -34.2397 -34.2380 -34.1833 -33.8894
   -33.8889   1.6270  11.4706  11.4766  11.5403  15.3287  15.3515  16.2586
    17.5519  17.5539  22.0883  24.1564

          k = 0.2500-0.5000 0.0000 (   524 PWs)   bands (ev):

   -74.0593 -38.6679 -38.4564 -38.2835 -34.3845 -34.1676 -34.0015 -33.9341
   -33.5791   1.9208   8.4090  11.8131  14.4678  15.2991  16.1902  16.4636
    17.0652  18.3672  20.1685  23.9177

          k = 0.2500-0.5000 0.2500 (   532 PWs)   bands (ev):

   -74.0714 -38.6288 -38.5643 -38.5067 -34.3144 -34.1571 -34.1214 -34.0972
   -34.0802   2.5224   9.0528  11.6600  12.8660  15.2747  15.4572  15.9662
    16.6295  18.3658  20.7072  21.2192

          k = 0.2500-0.5000-0.5000 (   536 PWs)   bands (ev):

   -74.0784 -38.6878 -38.6041 -38.5705 -34.4949 -34.3060 -34.1410 -34.1388
   -34.0630   3.3459   9.9259   9.9447  12.7106  14.6358  16.0320  16.0556
    16.5396  18.1338  18.2474  22.1571

          k = 0.2500-0.5000-0.2500 (   532 PWs)   bands (ev):

   -74.0714 -38.6285 -38.5527 -38.5188 -34.3143 -34.1571 -34.1207 -34.0978
   -34.0802   2.5221   9.0536  11.6684  12.8639  15.2762  15.4386  15.9433
    16.6483  18.3854  20.7040  21.2233

          k = 0.2500-0.2500 0.0000 (   533 PWs)   bands (ev):

   -74.0789 -38.6345 -38.6229 -38.5037 -34.3931 -34.3696 -34.1511 -34.1411
   -33.8216   0.9870  10.6828  11.1720  14.4362  15.1995  15.5817  16.1318
    16.6851  18.0570  22.3187  23.5582

          k = 0.2500-0.2500 0.2500 (   528 PWs)   bands (ev):

   -74.0663 -38.6789 -38.4574 -38.4151 -34.2392 -34.2378 -34.1825 -33.8902
   -33.8896   1.6273  11.4685  11.4721  11.5421  15.3348  15.3588  16.2731
    17.5381  17.5402  22.0887  24.1772

          k = 0.2500-0.2500-0.5000 (   532 PWs)   bands (ev):

   -74.0714 -38.6522 -38.5327 -38.5149 -34.3126 -34.1590 -34.1203 -34.0960
   -34.0824   2.5194   9.0689  11.6554  12.8549  15.2911  15.4598  15.9448
    16.6272  18.3687  20.7135  21.2350

          k = 0.2500-0.2500-0.2500 (   528 PWs)   bands (ev):

   -74.0662 -38.7235 -38.4184 -38.4091 -34.2397 -34.2378 -34.1832 -33.8895
   -33.8890   1.6270  11.4720  11.4787  11.5384  15.3337  15.3372  16.2469
    17.5623  17.5648  22.0858  24.1713

          k =-0.5000 0.0000 0.0000 (   498 PWs)   bands (ev):

   -74.0084 -38.3150 -38.0038 -37.9679 -33.6879 -33.6858 -33.4474 -33.1970
   -33.1891   1.3685   7.5869  14.1244  14.1344  15.9018  17.6051  17.6306
    19.3734  19.3851  21.9448  23.4034

          k =-0.5000 0.0000 0.2500 (   524 PWs)   bands (ev):

   -74.0593 -38.6614 -38.4840 -38.2623 -34.3826 -34.1678 -33.9993 -33.9360
   -33.5811   1.9201   8.4027  11.8229  14.4710  15.3086  16.1971  16.4559
    17.0562  18.3656  20.1753  23.9208

          k =-0.5000 0.0000-0.5000 (   536 PWs)   bands (ev):

   -74.0851 -38.7295 -38.6810 -38.5249 -34.6561 -34.4655 -34.4649 -33.8952
   -33.7577   2.6665   9.7083   9.7313  14.1113  15.1750  15.2019  15.9803
    16.6403  17.2844  18.6688  26.8456

          k =-0.5000 0.2500 0.0000 (   524 PWs)   bands (ev):

   -74.0594 -38.6604 -38.4635 -38.2839 -34.3842 -34.1658 -34.0015 -33.9360
   -33.5795   1.9216   8.4041  11.8158  14.4637  15.3033  16.1977  16.4576
    17.0683  18.3670  20.1703  23.9291

          k =-0.5000 0.2500 0.2500 (   532 PWs)   bands (ev):

   -74.0715 -38.6226 -38.5496 -38.5279 -34.3129 -34.1586 -34.1199 -34.0968
   -34.0820   2.5224   9.0513  11.6647  12.8679  15.2806  15.4410  15.9456
    16.6449  18.3809  20.6992  21.2140

          k =-0.5000 0.2500-0.5000 (   536 PWs)   bands (ev):

   -74.0784 -38.6941 -38.6068 -38.5615 -34.4963 -34.3046 -34.1411 -34.1404
   -34.0612   3.3452   9.9292   9.9479  12.7053  14.6258  16.0352  16.0601
    16.5412  18.1198  18.2444  22.1681

          k =-0.5000 0.2500-0.2500 (   532 PWs)   bands (ev):

   -74.0715 -38.6231 -38.5615 -38.5153 -34.3129 -34.1586 -34.1205 -34.0963
   -34.0820   2.5226   9.0507  11.6589  12.8700  15.2804  15.4542  15.9613
    16.6309  18.3665  20.7039  21.2092

          k =-0.5000-0.5000 0.0000 (   536 PWs)   bands (ev):

   -74.0851 -38.7003 -38.6899 -38.5453 -34.6580 -34.4652 -34.4632 -33.8974
   -33.7558   2.6707   9.7142   9.7180  14.0867  15.1791  15.1833  15.9966
    16.6559  17.2955  18.6619  26.8622

          k =-0.5000-0.5000 0.2500 (   536 PWs)   bands (ev):

   -74.0783 -38.7180 -38.5764 -38.5678 -34.4945 -34.3064 -34.1407 -34.1387
   -34.0634   3.3482   9.9324   9.9327  12.7196  14.6027  16.0427  16.0457
    16.5573  18.1095  18.2596  22.1746

          k =-0.5000-0.5000-0.5000 (   552 PWs)   bands (ev):

   -74.1040 -38.8459 -38.8051 -38.7915 -34.5908 -34.5886 -34.4068 -34.4061
   -34.4043   4.3468  10.0595  10.0643  10.0785  16.1083  16.1284  17.8255
    17.8456  17.9507  17.9600  17.9850

     the Fermi energy is    16.6794 ev

!    total energy              =    -727.45939771 Ry
     estimated scf accuracy    <       0.00043321 Ry

     convergence has been achieved in   3 iterations

     negative rho (up, down):  9.048E-03 0.000E+00

     Forces acting on atoms (cartesian axes, Ry/au):

     atom    1 type  1   force =    -0.00962788    0.00143614    0.00166948
     atom    2 type  2   force =     0.00962788   -0.00143614   -0.00166948

     Total force =     0.013968     Total SCF correction =     0.006920
     SCF correction compared to forces is large: reduce conv_thr to get better values


     Computing stress (Cartesian axis) and pressure


     negative rho (up, down):  9.048E-03 0.000E+00
          total   stress  (Ry/bohr**3)                   (kbar)     P=   -12914.02
  -0.08760571   0.00007596   0.00032001       -12887.24       11.17       47.08
   0.00007596  -0.08770004  -0.00030551           11.17   -12901.12      -44.94
   0.00032001  -0.00030551  -0.08805742           47.08      -44.94   -12953.69


     Entering Dynamics:    iteration =     4
                           time      =   0.0039 pico-seconds


ATOMIC_POSITIONS (angstrom)
Fe            0.0014657244        0.0004897952        0.0007562123
Se            1.5209643564        1.5216545890        1.5214661637


     kinetic energy (Ekin) =           0.00005971 Ry
     temperature           =           6.28460498 K 
     Ekin + Etot (const)   =        -727.45933800 Ry
     Ions kinetic stress =            0.03 (kbar)
                                      0.06           0.02           0.04
                                      0.02           0.01           0.01
                                      0.04           0.01           0.02



     Linear momentum :    0.0000000000   -0.0000000000    0.0000000000

     Writing config-only to output data dir ./work/try_0/calculation _try_0.save/
     NEW-OLD atomic charge density approx. for the potential

     Check: negative core charge=   -0.000042

     negative rho (up, down):  9.046E-03 0.000E+00

     total cpu time spent up to now is       11.3 secs

     Self-consistent Calculation

     iteration #  1     ecut=    30.00 Ry     beta= 0.70
     Davidson diagonalization with overlap
     ethr =  1.00E-06,  avg # of iterations =  3.2

     negative rho (up, down):  9.052E-03 0.000E+00

     total cpu time spent up to now is       12.0 secs

     total energy              =    -727.45866858 Ry
     estimated scf accuracy    <       0.00208990 Ry

     iteration #  2     ecut=    30.00 Ry     beta= 0.70
     Davidson diagonalization with overlap
     ethr =  6.53E-06,  avg # of iterations =  2.3

     negative rho (up, down):  9.109E-03 0.000E+00

     total cpu time spent up to now is       12.5 secs

     total energy              =    -727.45842366 Ry
     estimated scf accuracy    <       0.00673000 Ry

     iteration #  3     ecut=    30.00 Ry     beta= 0.70
     Davidson diagonalization with overlap
     ethr =  6.53E-06,  avg # of iterations =  2.2

     negative rho (up, down):  9.097E-03 0.000E+00

     total cpu time spent up to now is       13.1 secs

     total energy              =    -727.45917870 Ry
     estimated scf accuracy    <       0.00341739 Ry

     iteration #  4     ecut=    30.00 Ry     beta= 0.70
     Davidson diagonalization with overlap
     ethr =  6.53E-06,  avg # of iterations =  2.0

     negative rho (up, down):  9.151E-03 0.000E+00

     total cpu time spent up to now is       13.6 secs

     End of self-consistent calculation

          k = 0.0000 0.0000 0.0000 (   515 PWs)   bands (ev):

   -74.0594 -38.3313 -38.3245 -38.3159 -34.0084 -34.0081 -34.0071 -33.4954
   -33.4953  -0.3905  14.8471  14.9127  14.9543  14.9593  15.0150  16.3616
    16.3658  16.3697  19.3201  24.1268

          k = 0.0000 0.0000 0.2500 (   526 PWs)   bands (ev):

   -74.0803 -38.6687 -38.4257 -38.4111 -34.2133 -34.2125 -34.0353 -34.0314
   -33.6817   0.3263  10.3286  14.2166  14.2226  15.0108  15.9749  16.3701
    17.4857  17.4882  21.1334  23.7695

          k = 0.0000 0.0000-0.5000 (   498 PWs)   bands (ev):

   -74.0226 -38.3411 -37.9997 -37.9855 -33.6794 -33.6786 -33.4397 -33.1879
   -33.1801   1.3702   7.6053  14.1214  14.1295  15.8839  17.5843  17.6207
    19.3722  19.3745  21.9085  23.4117

          k = 0.0000 0.2500 0.0000 (   526 PWs)   bands (ev):

   -74.0803 -38.6739 -38.4204 -38.4111 -34.2132 -34.2124 -34.0355 -34.0313
   -33.6818   0.3261  10.3300  14.2152  14.2217  15.0140  15.9710  16.3729
    17.4844  17.4881  21.1320  23.7694

          k = 0.0000 0.2500 0.2500 (   533 PWs)   bands (ev):

   -74.0932 -38.6557 -38.6495 -38.4956 -34.3843 -34.3605 -34.1438 -34.1328
   -33.8131   0.9908  10.7001  11.1726  14.4296  15.1963  15.5706  16.1150
    16.6659  18.0540  22.3261  23.5559

          k = 0.0000 0.2500-0.5000 (   524 PWs)   bands (ev):

   -74.0735 -38.6869 -38.4871 -38.2735 -34.3752 -34.1587 -33.9923 -33.9269
   -33.5714   1.9232   8.4192  11.8176  14.4586  15.3006  16.1813  16.4454
    17.0504  18.3642  20.1892  23.9018

          k = 0.0000 0.2500-0.2500 (   533 PWs)   bands (ev):

   -74.0932 -38.6562 -38.6490 -38.4956 -34.3851 -34.3605 -34.1430 -34.1322
   -33.8137   0.9908  10.7006  11.1723  14.4285  15.1937  15.5725  16.1149
    16.6686  18.0530  22.3264  23.5552

          k = 0.0000-0.5000 0.0000 (   498 PWs)   bands (ev):

   -74.0225 -38.3462 -37.9944 -37.9855 -33.6793 -33.6785 -33.4398 -33.1881
   -33.1801   1.3696   7.6073  14.1196  14.1287  15.8872  17.5870  17.6171
    19.3706  19.3742  21.9051  23.4106

          k = 0.0000-0.5000 0.2500 (   524 PWs)   bands (ev):

   -74.0735 -38.6921 -38.4819 -38.2735 -34.3752 -34.1585 -33.9923 -33.9270
   -33.5714   1.9228   8.4214  11.8157  14.4566  15.3036  16.1841  16.4421
    17.0501  18.3633  20.1901  23.9000

          k = 0.0000-0.5000-0.5000 (   536 PWs)   bands (ev):

   -74.0993 -38.7229 -38.7162 -38.5363 -34.6488 -34.4565 -34.4557 -33.8884
   -33.7479   2.6721   9.7195   9.7221  14.1196  15.1709  15.1744  15.9726
    16.6401  17.2943  18.6661  26.8490

          k = 0.2500 0.0000 0.0000 (   526 PWs)   bands (ev):

   -74.0805 -38.6594 -38.4264 -38.4197 -34.2131 -34.2124 -34.0357 -34.0312
   -33.6820   0.3273  10.3165  14.2195  14.2204  15.0180  15.9758  16.3788
    17.4842  17.4856  21.1541  23.7667

          k = 0.2500 0.0000 0.2500 (   533 PWs)   bands (ev):

   -74.0933 -38.6501 -38.6408 -38.5100 -34.3851 -34.3603 -34.1431 -34.1321
   -33.8138   0.9918  10.6870  11.1769  14.4343  15.1971  15.5719  16.1152
    16.6687  18.0541  22.3223  23.5572

          k = 0.2500 0.0000-0.5000 (   524 PWs)   bands (ev):

   -74.0736 -38.6869 -38.4729 -38.2879 -34.3750 -34.1590 -33.9922 -33.9268
   -33.5716   1.9237   8.4218  11.8112  14.4635  15.2961  16.1829  16.4489
    17.0472  18.3636  20.1715  23.9133

          k = 0.2500 0.0000-0.2500 (   533 PWs)   bands (ev):

   -74.0933 -38.6502 -38.6407 -38.5100 -34.3843 -34.3603 -34.1439 -34.1326
   -33.8133   0.9917  10.6899  11.1754  14.4318  15.1943  15.5757  16.1152
    16.6704  18.0520  22.3205  23.5589

          k = 0.2500 0.2500 0.0000 (   533 PWs)   bands (ev):

   -74.0933 -38.6554 -38.6406 -38.5048 -34.3844 -34.3603 -34.1439 -34.1325
   -33.8133   0.9916  10.6899  11.1759  14.4324  15.1967  15.5764  16.1120
    16.6688  18.0527  22.3208  23.5584

          k = 0.2500 0.2500 0.2500 (   528 PWs)   bands (ev):

   -74.0806 -38.7115 -38.4453 -38.4344 -34.2307 -34.2300 -34.1749 -33.8808
   -33.8806   1.6322  11.4742  11.4767  11.5442  15.3301  15.3337  16.2505
    17.5395  17.5404  22.0899  24.1695

          k = 0.2500 0.2500-0.5000 (   532 PWs)   bands (ev):

   -74.0858 -38.6451 -38.5570 -38.5376 -34.3048 -34.1496 -34.1117 -34.0889
   -34.0730   2.5256   9.0656  11.6623  12.8637  15.2710  15.4426  15.9399
    16.6258  18.3658  20.7104  21.2248

          k = 0.2500 0.2500-0.2500 (   528 PWs)   bands (ev):

   -74.0806 -38.7154 -38.4413 -38.4345 -34.2308 -34.2299 -34.1750 -33.8808
   -33.8806   1.6321  11.4753  11.4773  11.5446  15.3284  15.3315  16.2464
    17.5423  17.5452  22.0907  24.1590

          k = 0.2500-0.5000 0.0000 (   524 PWs)   bands (ev):

   -74.0736 -38.6920 -38.4729 -38.2827 -34.3750 -34.1590 -33.9920 -33.9270
   -33.5716   1.9231   8.4238  11.8100  14.4629  15.2997  16.1856  16.4451
    17.0446  18.3629  20.1734  23.9101

          k = 0.2500-0.5000 0.2500 (   532 PWs)   bands (ev):

   -74.0858 -38.6503 -38.5545 -38.5350 -34.3048 -34.1497 -34.1124 -34.0880
   -34.0731   2.5254   9.0677  11.6589  12.8629  15.2730  15.4476  15.9419
    16.6203  18.3624  20.7100  21.2286

          k = 0.2500-0.5000-0.5000 (   536 PWs)   bands (ev):

   -74.0928 -38.7020 -38.6035 -38.5968 -34.4865 -34.2973 -34.1320 -34.1313
   -34.0543   3.3505   9.9377   9.9402  12.7124  14.6311  16.0308  16.0343
    16.5323  18.1313  18.2423  22.1675

          k = 0.2500-0.5000-0.2500 (   532 PWs)   bands (ev):

   -74.0858 -38.6503 -38.5532 -38.5363 -34.3048 -34.1497 -34.1117 -34.0888
   -34.0732   2.5252   9.0676  11.6611  12.8627  15.2746  15.4446  15.9375
    16.6226  18.3651  20.7121  21.2267

          k = 0.2500-0.2500 0.0000 (   533 PWs)   bands (ev):

   -74.0933 -38.6553 -38.6408 -38.5048 -34.3852 -34.3602 -34.1432 -34.1320
   -33.8138   0.9916  10.6886  11.1763  14.4341  15.1995  15.5737  16.1117
    16.6666  18.0540  22.3225  23.5572

          k = 0.2500-0.2500 0.2500 (   528 PWs)   bands (ev):

   -74.0806 -38.7127 -38.4418 -38.4367 -34.2300 -34.2298 -34.1739 -33.8818
   -33.8816   1.6323  11.4735  11.4760  11.5450  15.3303  15.3334  16.2512
    17.5385  17.5410  22.0897  24.1747

          k = 0.2500-0.2500-0.5000 (   532 PWs)   bands (ev):

   -74.0858 -38.6451 -38.5589 -38.5358 -34.3049 -34.1496 -34.1125 -34.0881
   -34.0729   2.5258   9.0656  11.6602  12.8648  15.2696  15.4460  15.9427
    16.6232  18.3640  20.7092  21.2258

          k = 0.2500-0.2500-0.2500 (   528 PWs)   bands (ev):

   -74.0806 -38.7108 -38.4460 -38.4344 -34.2307 -34.2300 -34.1749 -33.8809
   -33.8805   1.6322  11.4739  11.4767  11.5451  15.3287  15.3355  16.2496
    17.5392  17.5410  22.0903  24.1731

          k =-0.5000 0.0000 0.0000 (   498 PWs)   bands (ev):

   -74.0228 -38.3320 -38.0005 -37.9939 -33.6792 -33.6785 -33.4393 -33.1882
   -33.1804   1.3742   7.5898  14.1244  14.1256  15.8978  17.6017  17.6081
    19.3720  19.3732  21.9542  23.4122

          k =-0.5000 0.0000 0.2500 (   524 PWs)   bands (ev):

   -74.0737 -38.6777 -38.4820 -38.2879 -34.3750 -34.1586 -33.9922 -33.9272
   -33.5717   1.9263   8.4062  11.8227  14.4599  15.3017  16.1913  16.4404
    17.0525  18.3633  20.1714  23.9324

          k =-0.5000 0.0000-0.5000 (   536 PWs)   bands (ev):

   -74.0995 -38.7169 -38.7076 -38.5509 -34.6486 -34.4566 -34.4557 -33.8881
   -33.7481   2.6736   9.7147   9.7302  14.0947  15.1721  15.1771  15.9772
    16.6359  17.2949  18.6594  26.8604

          k =-0.5000 0.2500 0.0000 (   524 PWs)   bands (ev):

   -74.0737 -38.6777 -38.4872 -38.2828 -34.3749 -34.1587 -33.9920 -33.9272
   -33.5717   1.9261   8.4060  11.8234  14.4613  15.3025  16.1912  16.4399
    17.0504  18.3636  20.1724  23.9309

          k =-0.5000 0.2500 0.2500 (   532 PWs)   bands (ev):

   -74.0858 -38.6359 -38.5622 -38.5417 -34.3046 -34.1499 -34.1116 -34.0887
   -34.0734   2.5277   9.0536  11.6620  12.8744  15.2761  15.4421  15.9415
    16.6226  18.3631  20.7014  21.2085

          k =-0.5000 0.2500-0.5000 (   536 PWs)   bands (ev):

   -74.0927 -38.7163 -38.5976 -38.5883 -34.4867 -34.2971 -34.1322 -34.1313
   -34.0541   3.3516   9.9340   9.9437  12.7141  14.6066  16.0368  16.0384
    16.5386  18.1105  18.2431  22.1712

          k =-0.5000 0.2500-0.2500 (   532 PWs)   bands (ev):

   -74.0858 -38.6359 -38.5582 -38.5457 -34.3047 -34.1499 -34.1123 -34.0880
   -34.0733   2.5276   9.0538  11.6623  12.8748  15.2763  15.4392  15.9396
    16.6254  18.3643  20.7012  21.2091

          k =-0.5000-0.5000 0.0000 (   536 PWs)   bands (ev):

   -74.0994 -38.7221 -38.7076 -38.5457 -34.6486 -34.4567 -34.4558 -33.8879
   -33.7482   2.6731   9.7137   9.7319  14.0990  15.1745  15.1772  15.9731
    16.6332  17.2938  18.6613  26.8579

          k =-0.5000-0.5000 0.2500 (   536 PWs)   bands (ev):

   -74.0927 -38.7112 -38.6028 -38.5882 -34.4868 -34.2971 -34.1322 -34.1314
   -34.0539   3.3512   9.9335   9.9457  12.7121  14.6111  16.0363  16.0401
    16.5347  18.1129  18.2407  22.1636

          k =-0.5000-0.5000-0.5000 (   552 PWs)   bands (ev):

   -74.1183 -38.8348 -38.8281 -38.8193 -34.5812 -34.5810 -34.3979 -34.3977
   -34.3966   4.3516  10.0669  10.0694  10.0717  16.1037  16.1088  17.8269
    17.8294  17.8961  17.9512  17.9723

     the Fermi energy is    16.6689 ev

!    total energy              =    -727.45960595 Ry
     estimated scf accuracy    <       0.00016738 Ry

     convergence has been achieved in   4 iterations

     negative rho (up, down):  9.151E-03 0.000E+00

     Forces acting on atoms (cartesian axes, Ry/au):

     atom    1 type  1   force =    -0.02094520    0.00133494    0.00178484
     atom    2 type  2   force =     0.02094520   -0.00133494   -0.00178484

     Total force =     0.029788     Total SCF correction =     0.029557
     SCF correction compared to forces is large: reduce conv_thr to get better values


     Computing stress (Cartesian axis) and pressure


     negative rho (up, down):  9.151E-03 0.000E+00
          total   stress  (Ry/bohr**3)                   (kbar)     P=   -12925.31
  -0.08775772  -0.00005745   0.00009559       -12909.61       -8.45       14.06
  -0.00005745  -0.08800726   0.00011847           -8.45   -12946.31       17.43
   0.00009559   0.00011847  -0.08782853           14.06       17.43   -12920.02


     Entering Dynamics:    iteration =     5
                           time      =   0.0048 pico-seconds


ATOMIC_POSITIONS (angstrom)
Fe            0.0016779020        0.0006241066        0.0009572395
Se            1.5208142923        1.5215595963        1.5213239858


     kinetic energy (Ekin) =           0.00004718 Ry
     temperature           =           4.96623481 K 
     Ekin + Etot (const)   =        -727.45955877 Ry
     Ions kinetic stress =            0.02 (kbar)
                                      0.04           0.02           0.03
                                      0.02           0.01           0.02
                                      0.03           0.02           0.02



     Linear momentum :    0.0000000000   -0.0000000000    0.0000000000

     Writing config-only to output data dir ./work/try_0/calculation _try_0.save/
     NEW-OLD atomic charge density approx. for the potential

     Check: negative core charge=   -0.000042

     negative rho (up, down):  9.149E-03 0.000E+00

     total cpu time spent up to now is       14.0 secs

     Self-consistent Calculation

     iteration #  1     ecut=    30.00 Ry     beta= 0.70
     Davidson diagonalization with overlap
     ethr =  1.00E-06,  avg # of iterations =  2.1

     negative rho (up, down):  9.219E-03 0.000E+00

     total cpu time spent up to now is       14.6 secs

     End of self-consistent calculation

          k = 0.0000 0.0000 0.0000 (   515 PWs)   bands (ev):

   -74.0347 -38.3344 -38.2966 -38.2666 -34.0201 -34.0186 -34.0163 -33.5076
   -33.5039  -0.3931  14.8517  14.9226  14.9461  14.9631  15.0227  16.3707
    16.3801  16.4057  19.3233  24.1368

          k = 0.0000 0.0000 0.2500 (   526 PWs)   bands (ev):

   -74.0555 -38.6699 -38.3922 -38.3695 -34.2234 -34.2212 -34.0476 -34.0403
   -33.6938   0.3222  10.3378  14.2151  14.2234  15.0400  15.9738  16.4054
    17.4883  17.4967  21.1310  23.7715

          k = 0.0000 0.0000-0.5000 (   498 PWs)   bands (ev):

   -73.9978 -38.3420 -37.9666 -37.9445 -33.6892 -33.6868 -33.4487 -33.2003
   -33.1921   1.3626   7.6188  14.1192  14.1293  15.9148  17.6159  17.6264
    19.3730  19.3798  21.8942  23.4055

          k = 0.0000 0.2500 0.0000 (   526 PWs)   bands (ev):

   -74.0556 -38.6353 -38.4251 -38.3714 -34.2249 -34.2235 -34.0441 -34.0433
   -33.6905   0.3239  10.3236  14.2244  14.2342  15.0191  15.9990  16.3820
    17.4934  17.5071  21.1387  23.7783

          k = 0.0000 0.2500 0.2500 (   533 PWs)   bands (ev):

   -74.0684 -38.6571 -38.6097 -38.4602 -34.3952 -34.3711 -34.1535 -34.1430
   -33.8238   0.9871  10.7020  11.1736  14.4324  15.2067  15.6024  16.1280
    16.6879  18.0587  22.3304  23.5595

          k = 0.0000 0.2500-0.5000 (   524 PWs)   bands (ev):

   -74.0487 -38.6879 -38.4465 -38.2393 -34.3855 -34.1668 -34.0029 -33.9392
   -33.5821   1.9164   8.4328  11.8070  14.4597  15.3290  16.2154  16.4502
    17.0612  18.3651  20.2034  23.8936

          k = 0.0000 0.2500-0.2500 (   533 PWs)   bands (ev):

   -74.0684 -38.6566 -38.6104 -38.4601 -34.3951 -34.3711 -34.1536 -34.1429
   -33.8237   0.9872  10.7023  11.1718  14.4414  15.2210  15.5836  16.1280
    16.6743  18.0692  22.3286  23.5627

          k = 0.0000-0.5000 0.0000 (   498 PWs)   bands (ev):

   -73.9979 -38.3077 -37.9996 -37.9464 -33.6906 -33.6896 -33.4514 -33.1964
   -33.1889   1.3685   7.5988  14.1319  14.1404  15.8913  17.5937  17.6492
    19.3806  19.3924  21.9189  23.4192

          k = 0.0000-0.5000 0.2500 (   524 PWs)   bands (ev):

   -74.0487 -38.6538 -38.4810 -38.2391 -34.3861 -34.1705 -34.0029 -33.9355
   -33.5813   1.9202   8.4114  11.8262  14.4771  15.3099  16.1909  16.4708
    17.0641  18.3736  20.1958  23.9079

          k = 0.0000-0.5000-0.5000 (   536 PWs)   bands (ev):

   -74.0746 -38.7237 -38.6767 -38.5008 -34.6594 -34.4684 -34.4647 -33.8990
   -33.7582   2.6670   9.7067   9.7332  14.1353  15.1780  15.2084  15.9885
    16.6537  17.2888  18.6839  26.8496

          k = 0.2500 0.0000 0.0000 (   526 PWs)   bands (ev):

   -74.0558 -38.6277 -38.4259 -38.3782 -34.2248 -34.2213 -34.0463 -34.0416
   -33.6925   0.3244  10.3161  14.2220  14.2321  15.0295  15.9962  16.3946
    17.4892  17.5038  21.1607  23.7706

          k = 0.2500 0.0000 0.2500 (   533 PWs)   bands (ev):

   -74.0685 -38.6564 -38.6028 -38.4678 -34.3965 -34.3691 -34.1544 -34.1410
   -33.8255   0.9874  10.6905  11.1808  14.4359  15.2128  15.6070  16.1232
    16.6856  18.0566  22.3276  23.5588

          k = 0.2500 0.0000-0.5000 (   524 PWs)   bands (ev):

   -74.0488 -38.6878 -38.4390 -38.2469 -34.3838 -34.1692 -34.0006 -33.9392
   -33.5839   1.9160   8.4348  11.8055  14.4672  15.3271  16.2167  16.4534
    17.0537  18.3610  20.1863  23.9008

          k = 0.2500 0.0000-0.2500 (   533 PWs)   bands (ev):

   -74.0685 -38.6559 -38.6035 -38.4677 -34.3959 -34.3691 -34.1550 -34.1413
   -33.8250   0.9873  10.6946  11.1765  14.4437  15.2256  15.5895  16.1229
    16.6725  18.0661  22.3244  23.5638

          k = 0.2500 0.2500 0.0000 (   533 PWs)   bands (ev):

   -74.0686 -38.6216 -38.6065 -38.4991 -34.3942 -34.3723 -34.1532 -34.1441
   -33.8227   0.9891  10.6873  11.1747  14.4425  15.2078  15.5819  16.1430
    16.6910  18.0645  22.3221  23.5670

          k = 0.2500 0.2500 0.2500 (   528 PWs)   bands (ev):

   -74.0558 -38.7064 -38.4124 -38.3984 -34.2416 -34.2396 -34.1851 -33.8919
   -33.8909   1.6283  11.4731  11.4818  11.5448  15.3438  15.3466  16.2597
    17.5639  17.5671  22.0905  24.1725

          k = 0.2500 0.2500-0.5000 (   532 PWs)   bands (ev):

   -74.0610 -38.6480 -38.5288 -38.4891 -34.3138 -34.1616 -34.1214 -34.0981
   -34.0853   2.5187   9.0787  11.6556  12.8542  15.3025  15.4753  15.9553
    16.6282  18.3680  20.7266  21.2418

          k = 0.2500 0.2500-0.2500 (   528 PWs)   bands (ev):

   -74.0560 -38.6601 -38.4457 -38.4119 -34.2421 -34.2396 -34.1855 -33.8915
   -33.8905   1.6283  11.4707  11.4767  11.5485  15.3456  15.3656  16.2819
    17.5425  17.5450  22.0947  24.1575

          k = 0.2500-0.5000 0.0000 (   524 PWs)   bands (ev):

   -74.0490 -38.6531 -38.4410 -38.2799 -34.3872 -34.1695 -34.0043 -33.9355
   -33.5803   1.9219   8.4152  11.8150  14.4737  15.3015  16.1932  16.4765
    17.0744  18.3708  20.1714  23.9272

          k = 0.2500-0.5000 0.2500 (   532 PWs)   bands (ev):

   -74.0611 -38.6150 -38.5476 -38.5035 -34.3169 -34.1585 -34.1237 -34.0996
   -34.0815   2.5226   9.0580  11.6715  12.8665  15.2774  15.4488  15.9565
    16.6574  18.3914  20.7079  21.2307

          k = 0.2500-0.5000-0.5000 (   536 PWs)   bands (ev):

   -74.0681 -38.6728 -38.6017 -38.5539 -34.4969 -34.3079 -34.1439 -34.1401
   -34.0649   3.3450   9.9268   9.9525  12.7127  14.6504  16.0337  16.0641
    16.5482  18.1470  18.2532  22.1563

          k = 0.2500-0.5000-0.2500 (   532 PWs)   bands (ev):

   -74.0610 -38.6146 -38.5581 -38.4933 -34.3168 -34.1585 -34.1232 -34.1001
   -34.0815   2.5227   9.0571  11.6667  12.8686  15.2788  15.4615  15.9713
    16.6431  18.3766  20.7157  21.2231

          k = 0.2500-0.2500 0.0000 (   533 PWs)   bands (ev):

   -74.0686 -38.6226 -38.6054 -38.4991 -34.3946 -34.3723 -34.1528 -34.1439
   -33.8229   0.9892  10.6841  11.1777  14.4377  15.2004  15.5926  16.1429
    16.6992  18.0590  22.3240  23.5638

          k = 0.2500-0.2500 0.2500 (   528 PWs)   bands (ev):

   -74.0559 -38.6956 -38.4390 -38.3826 -34.2416 -34.2394 -34.1848 -33.8921
   -33.8911   1.6284  11.4726  11.4800  11.5450  15.3339  15.3619  16.2653
    17.5591  17.5615  22.0903  24.1870

          k = 0.2500-0.2500-0.5000 (   532 PWs)   bands (ev):

   -74.0610 -38.6484 -38.5142 -38.5033 -34.3138 -34.1616 -34.1217 -34.0977
   -34.0853   2.5187   9.0794  11.6585  12.8530  15.3007  15.4680  15.9465
    16.6365  18.3770  20.7221  21.2470

          k = 0.2500-0.2500-0.2500 (   528 PWs)   bands (ev):

   -74.0559 -38.6957 -38.4361 -38.3854 -34.2421 -34.2393 -34.1851 -33.8917
   -33.8908   1.6283  11.4733  11.4795  11.5463  15.3328  15.3618  16.2638
    17.5598  17.5629  22.0916  24.1700

          k =-0.5000 0.0000 0.0000 (   498 PWs)   bands (ev):

   -73.9982 -38.3002 -38.0005 -37.9531 -33.6905 -33.6872 -33.4493 -33.1988
   -33.1909   1.3706   7.5895  14.1270  14.1377  15.9098  17.6117  17.6367
    19.3769  19.3897  21.9624  23.4137

          k =-0.5000 0.0000 0.2500 (   524 PWs)   bands (ev):

   -74.0490 -38.6463 -38.4809 -38.2468 -34.3840 -34.1705 -34.0006 -33.9379
   -33.5836   1.9212   8.4045  11.8300  14.4775  15.3163  16.2050  16.4628
    17.0615  18.3683  20.1810  23.9316

          k =-0.5000 0.0000-0.5000 (   536 PWs)   bands (ev):

   -74.0747 -38.7229 -38.6697 -38.5086 -34.6575 -34.4683 -34.4670 -33.8965
   -33.7603   2.6657   9.7080   9.7415  14.1211  15.1862  15.2101  15.9868
    16.6431  17.2813  18.6786  26.8517

          k =-0.5000 0.2500 0.0000 (   524 PWs)   bands (ev):

   -74.0491 -38.6455 -38.4484 -38.2801 -34.3867 -34.1671 -34.0043 -33.9379
   -33.5807   1.9232   8.4062  11.8203  14.4666  15.3096  16.2059  16.4657
    17.0791  18.3696  20.1738  23.9439

          k =-0.5000 0.2500 0.2500 (   532 PWs)   bands (ev):

   -74.0611 -38.6080 -38.5476 -38.5105 -34.3150 -34.1604 -34.1224 -34.0985
   -34.0839   2.5232   9.0531  11.6686  12.8735  15.2877  15.4477  15.9525
    16.6554  18.3883  20.7035  21.2153

          k =-0.5000 0.2500-0.5000 (   536 PWs)   bands (ev):

   -74.0680 -38.6799 -38.6010 -38.5474 -34.4989 -34.3059 -34.1439 -34.1424
   -34.0625   3.3442   9.9304   9.9573  12.7057  14.6355  16.0417  16.0687
    16.5486  18.1290  18.2472  22.1625

          k =-0.5000 0.2500-0.2500 (   532 PWs)   bands (ev):

[...]
    17.5332  17.5366  22.0991  24.1751

          k = 0.2500 0.2500-0.5000 (   532 PWs)   bands (ev):

   -74.0925 -38.6520 -38.5630 -38.5382 -34.2990 -34.1440 -34.1064 -34.0834
   -34.0676   2.5299   9.0800  11.6669  12.8701  15.2619  15.4437  15.9342
    16.6212  18.3617  20.7219  21.2313

          k = 0.2500 0.2500-0.2500 (   528 PWs)   bands (ev):

   -74.0875 -38.7150 -38.4498 -38.4401 -34.2251 -34.2242 -34.1694 -33.8754
   -33.8754   1.6386  11.4799  11.4846  11.5586  15.3259  15.3278  16.2417
    17.5324  17.5363  22.1010  24.1576

          k = 0.2500-0.5000 0.0000 (   524 PWs)   bands (ev):

   -74.0804 -38.6983 -38.4734 -38.2896 -34.3695 -34.1539 -33.9865 -33.9214
   -33.5658   1.9274   8.4441  11.8125  14.4629  15.2944  16.1739  16.4415
    17.0368  18.3608  20.1797  23.9207

          k = 0.2500-0.5000 0.2500 (   532 PWs)   bands (ev):

   -74.0925 -38.6565 -38.5567 -38.5399 -34.2994 -34.1437 -34.1068 -34.0830
   -34.0676   2.5291   9.0850  11.6638  12.8668  15.2655  15.4463  15.9338
    16.6157  18.3618  20.7205  21.2385

          k = 0.2500-0.5000-0.5000 (   536 PWs)   bands (ev):

   -74.0996 -38.7024 -38.6092 -38.6040 -34.4807 -34.2917 -34.1265 -34.1258
   -34.0490   3.3532   9.9455   9.9508  12.7171  14.6428  16.0228  16.0258
    16.5285  18.1451  18.2389  22.1631

          k = 0.2500-0.5000-0.2500 (   532 PWs)   bands (ev):

   -74.0925 -38.6565 -38.5632 -38.5334 -34.2994 -34.1437 -34.1066 -34.0831
   -34.0676   2.5290   9.0846  11.6641  12.8675  15.2674  15.4471  15.9348
    16.6139  18.3588  20.7248  21.2344

          k = 0.2500-0.2500 0.0000 (   533 PWs)   bands (ev):

   -74.1001 -38.6615 -38.6412 -38.5116 -34.3798 -34.3546 -34.1380 -34.1266
   -33.8080   0.9993  10.6953  11.1886  14.4324  15.1967  15.5679  16.1051
    16.6631  18.0505  22.3339  23.5631

          k = 0.2500-0.2500 0.2500 (   528 PWs)   bands (ev):

   -74.0874 -38.7200 -38.4508 -38.4340 -34.2248 -34.2240 -34.1688 -33.8761
   -33.8758   1.6389  11.4793  11.4835  11.5576  15.3240  15.3306  16.2427
    17.5319  17.5358  22.0988  24.1823

          k = 0.2500-0.2500-0.5000 (   532 PWs)   bands (ev):

   -74.0925 -38.6520 -38.5641 -38.5371 -34.2991 -34.1440 -34.1071 -34.0828
   -34.0675   2.5300   9.0802  11.6656  12.8703  15.2601  15.4466  15.9368
    16.6191  18.3600  20.7204  21.2330

          k = 0.2500-0.2500-0.2500 (   528 PWs)   bands (ev):

   -74.0874 -38.7130 -38.4507 -38.4412 -34.2251 -34.2244 -34.1694 -33.8755
   -33.8751   1.6387  11.4788  11.4843  11.5585  15.3258  15.3305  16.2441
    17.5305  17.5338  22.1002  24.1785

          k =-0.5000 0.0000 0.0000 (   498 PWs)   bands (ev):

   -74.0297 -38.3326 -38.0069 -38.0020 -33.6739 -33.6732 -33.4336 -33.1829
   -33.1748   1.3819   7.5990  14.1217  14.1220  15.9002  17.5872  17.5996
    19.3665  19.3679  21.9862  23.4369

          k =-0.5000 0.0000 0.2500 (   524 PWs)   bands (ev):

   -74.0806 -38.6779 -38.4888 -38.2947 -34.3690 -34.1533 -33.9866 -33.9220
   -33.5663   1.9327   8.4143  11.8325  14.4567  15.3026  16.1888  16.4284
    17.0477  18.3620  20.1769  23.9561

          k =-0.5000 0.0000-0.5000 (   536 PWs)   bands (ev):

   -74.1063 -38.7248 -38.7064 -38.5575 -34.6427 -34.4512 -34.4504 -33.8825
   -33.7428   2.6777   9.7213   9.7453  14.0977  15.1669  15.1741  15.9730
    16.6255  17.2973  18.6616  26.8799

          k =-0.5000 0.2500 0.0000 (   524 PWs)   bands (ev):

   -74.0806 -38.6779 -38.4936 -38.2899 -34.3693 -34.1534 -33.9865 -33.9220
   -33.5660   1.9322   8.4139  11.8347  14.4573  15.3044  16.1885  16.4275
    17.0472  18.3603  20.1781  23.9533

          k =-0.5000 0.2500 0.2500 (   532 PWs)   bands (ev):

   -74.0926 -38.6363 -38.5672 -38.5496 -34.2988 -34.1443 -34.1061 -34.0832
   -34.0682   2.5329   9.0612  11.6671  12.8855  15.2762  15.4391  15.9340
    16.6168  18.3581  20.7077  21.2060

          k =-0.5000 0.2500-0.5000 (   536 PWs)   bands (ev):

   -74.0995 -38.7225 -38.6057 -38.5872 -34.4813 -34.2911 -34.1267 -34.1261
   -34.0485   3.3549   9.9411   9.9552  12.7184  14.6032  16.0315  16.0362
    16.5368  18.1137  18.2369  22.1720

          k =-0.5000 0.2500-0.2500 (   532 PWs)   bands (ev):

   -74.0926 -38.6363 -38.5660 -38.5508 -34.2988 -34.1443 -34.1068 -34.0825
   -34.0681   2.5329   9.0613  11.6668  12.8862  15.2763  15.4378  15.9334
    16.6178  18.3584  20.7080  21.2062

          k =-0.5000-0.5000 0.0000 (   536 PWs)   bands (ev):

   -74.1062 -38.7282 -38.7079 -38.5525 -34.6430 -34.4513 -34.4504 -33.8824
   -33.7425   2.6765   9.7195   9.7492  14.1061  15.1682  15.1738  15.9668
    16.6239  17.2946  18.6634  26.8752

          k =-0.5000-0.5000 0.2500 (   536 PWs)   bands (ev):

   -74.0995 -38.7180 -38.6091 -38.5883 -34.4810 -34.2915 -34.1268 -34.1260
   -34.0485   3.3540   9.9401   9.9596  12.7148  14.6115  16.0328  16.0339
    16.5309  18.1170  18.2357  22.1623

          k =-0.5000-0.5000-0.5000 (   552 PWs)   bands (ev):

   -74.1251 -38.8402 -38.8367 -38.8180 -34.5757 -34.5751 -34.3924 -34.3920
   -34.3913   4.3528  10.0743  10.0756  10.0803  16.0927  16.1043  17.8102
    17.8216  17.9258  17.9418  17.9878

     the Fermi energy is    16.6629 ev

!    total energy              =    -727.45982879 Ry
     estimated scf accuracy    <       0.00060200 Ry

     convergence has been achieved in   4 iterations

     negative rho (up, down):  9.393E-03 0.000E+00

     Forces acting on atoms (cartesian axes, Ry/au):

     atom    1 type  1   force =    -0.02615050    0.00178030    0.00138100
     atom    2 type  2   force =     0.02615050   -0.00178030   -0.00138100

     Total force =     0.037119     Total SCF correction =     0.051686
     SCF correction compared to forces is large: reduce conv_thr to get better values


     Computing stress (Cartesian axis) and pressure


     negative rho (up, down):  9.393E-03 0.000E+00
          total   stress  (Ry/bohr**3)                   (kbar)     P=   -12863.18
  -0.08730827  -0.00001059  -0.00009263       -12843.49       -1.56      -13.63
  -0.00001059  -0.08758864   0.00005118           -1.56   -12884.73        7.53
  -0.00009263   0.00005118  -0.08742951          -13.63        7.53   -12861.33


     Entering Dynamics:    iteration =     7
                           time      =   0.0068 pico-seconds


ATOMIC_POSITIONS (angstrom)
Fe            0.0019140331        0.0008971687        0.0013583769
Se            1.5206472870        1.5213664713        1.5210402787


     kinetic energy (Ekin) =           0.00002824 Ry
     temperature           =           2.97273755 K 
     Ekin + Etot (const)   =        -727.45980055 Ry
     Ions kinetic stress =            0.01 (kbar)
                                      0.01           0.01           0.01
                                      0.01           0.01           0.02
                                      0.01           0.02           0.02



     Linear momentum :    0.0000000000    0.0000000000   -0.0000000000

     Writing config-only to output data dir ./work/try_0/calculation _try_0.save/
     NEW-OLD atomic charge density approx. for the potential

     Check: negative core charge=   -0.000042

     negative rho (up, down):  9.392E-03 0.000E+00

     total cpu time spent up to now is       17.8 secs

     Self-consistent Calculation

     iteration #  1     ecut=    30.00 Ry     beta= 0.70
     Davidson diagonalization with overlap
     ethr =  1.00E-06,  avg # of iterations =  3.4

     negative rho (up, down):  9.481E-03 0.000E+00

     total cpu time spent up to now is       18.5 secs

     total energy              =    -727.45909799 Ry
     estimated scf accuracy    <       0.00159150 Ry

     iteration #  2     ecut=    30.00 Ry     beta= 0.70
     Davidson diagonalization with overlap
     ethr =  4.97E-06,  avg # of iterations =  3.3

     negative rho (up, down):  9.422E-03 0.000E+00

     total cpu time spent up to now is       19.1 secs

     total energy              =    -727.45740380 Ry
     estimated scf accuracy    <       0.01829493 Ry

     iteration #  3     ecut=    30.00 Ry     beta= 0.70
     Davidson diagonalization with overlap
     ethr =  4.97E-06,  avg # of iterations =  3.1

     negative rho (up, down):  9.570E-03 0.000E+00

     total cpu time spent up to now is       19.6 secs

     End of self-consistent calculation

          k = 0.0000 0.0000 0.0000 (   515 PWs)   bands (ev):

   -73.9987 -38.2780 -38.2636 -38.2444 -34.0174 -34.0158 -34.0146 -33.5044
   -33.5021  -0.3787  14.8079  14.9403  14.9539  14.9880  15.0718  16.3866
    16.3994  16.4357  19.3548  24.1713

          k = 0.0000 0.0000 0.2500 (   526 PWs)   bands (ev):

   -74.0195 -38.5914 -38.3715 -38.3565 -34.2221 -34.2209 -34.0422 -34.0403
   -33.6883   0.3355  10.3513  14.2286  14.2515  15.0347  16.0254  16.3910
    17.5086  17.5276  21.1577  23.8149

          k = 0.0000 0.0000-0.5000 (   498 PWs)   bands (ev):

   -73.9619 -38.2651 -37.9474 -37.9320 -33.6879 -33.6865 -33.4481 -33.1947
   -33.1867   1.3738   7.6352  14.1326  14.1609  15.8975  17.5930  17.6750
    19.3909  19.4081  21.9292  23.4567

          k = 0.0000 0.2500 0.0000 (   526 PWs)   bands (ev):

   -74.0195 -38.6062 -38.3721 -38.3411 -34.2220 -34.2197 -34.0434 -34.0392
   -33.6895   0.3348  10.3583  14.2222  14.2476  15.0438  16.0145  16.4034
    17.5021  17.5260  21.1538  23.8119

          k = 0.0000 0.2500 0.2500 (   533 PWs)   bands (ev):

   -74.0323 -38.5883 -38.5727 -38.4532 -34.3923 -34.3694 -34.1509 -34.1414
   -33.8201   0.9973  10.7274  11.1907  14.4423  15.2201  15.5982  16.1726
    16.7164  18.0736  22.3579  23.5766

          k = 0.0000 0.2500-0.5000 (   524 PWs)   bands (ev):

   -74.0126 -38.6096 -38.4198 -38.2324 -34.3843 -34.1665 -34.0016 -33.9338
   -33.5778   1.9251   8.4441  11.8379  14.4782  15.3270  16.1998  16.5007
    17.1064  18.3788  20.2246  23.9254

          k = 0.0000 0.2500-0.2500 (   533 PWs)   bands (ev):

   -74.0323 -38.5887 -38.5722 -38.4532 -34.3925 -34.3694 -34.1507 -34.1411
   -33.8204   0.9973  10.7269  11.1914  14.4397  15.2164  15.6034  16.1727
    16.7203  18.0710  22.3578  23.5757

          k = 0.0000-0.5000 0.0000 (   498 PWs)   bands (ev):

   -73.9619 -38.2799 -37.9479 -37.9166 -33.6877 -33.6854 -33.4472 -33.1960
   -33.1878   1.3711   7.6447  14.1255  14.1564  15.9078  17.6055  17.6650
    19.3841  19.4045  21.9156  23.4513

          k = 0.0000-0.5000 0.2500 (   524 PWs)   bands (ev):

   -74.0126 -38.6244 -38.4051 -38.2322 -34.3840 -34.1653 -34.0016 -33.9350
   -33.5780   1.9234   8.4542  11.8288  14.4694  15.3347  16.2124  16.4932
    17.1049  18.3740  20.2278  23.9174

          k = 0.0000-0.5000-0.5000 (   536 PWs)   bands (ev):

   -74.0384 -38.6552 -38.6390 -38.4936 -34.6578 -34.4643 -34.4631 -33.8978
   -33.7544   2.6714   9.7297   9.7421  14.1633  15.1956  15.2095  16.0386
    16.7016  17.2935  18.6957  26.8841

          k = 0.2500 0.0000 0.0000 (   526 PWs)   bands (ev):

   -74.0198 -38.6174 -38.3595 -38.3425 -34.2207 -34.2195 -34.0451 -34.0379
   -33.6909   0.3365  10.3329  14.2288  14.2326  15.0796  15.9976  16.4456
    17.4990  17.5050  21.1912  23.8096

          k = 0.2500 0.0000 0.2500 (   533 PWs)   bands (ev):

   -74.0325 -38.6015 -38.5700 -38.4428 -34.3932 -34.3680 -34.1511 -34.1400
   -33.8215   0.9987  10.7004  11.1994  14.4532  15.2349  15.6226  16.1482
    16.7088  18.0744  22.3491  23.5822

          k = 0.2500 0.0000-0.5000 (   524 PWs)   bands (ev):

   -74.0129 -38.6098 -38.4307 -38.2214 -34.3830 -34.1679 -34.0001 -33.9338
   -33.5791   1.9254   8.4480  11.8252  14.5043  15.3170  16.2030  16.5052
    17.0759  18.3842  20.1987  23.9461

          k = 0.2500 0.0000-0.2500 (   533 PWs)   bands (ev):

   -74.0325 -38.6009 -38.5707 -38.4427 -34.3929 -34.3680 -34.1515 -34.1403
   -33.8212   0.9985  10.7056  11.1955  14.4552  15.2386  15.6162  16.1478
    16.7036  18.0780  22.3464  23.5860

          k = 0.2500 0.2500 0.0000 (   533 PWs)   bands (ev):

   -74.0325 -38.6012 -38.5855 -38.4275 -34.3934 -34.3669 -34.1520 -34.1393
   -33.8222   0.9977  10.7081  11.1977  14.4521  15.2397  15.6291  16.1405
    16.6998  18.0746  22.3487  23.5820

          k = 0.2500 0.2500 0.2500 (   528 PWs)   bands (ev):

   -74.0198 -38.6570 -38.3804 -38.3673 -34.2389 -34.2371 -34.1830 -33.8891
   -33.8885   1.6364  11.4899  11.4929  11.5668  15.3659  15.3756  16.2856
    17.5767  17.5806  22.1110  24.1920

          k = 0.2500 0.2500-0.5000 (   532 PWs)   bands (ev):

   -74.0249 -38.5690 -38.4977 -38.4864 -34.3137 -34.1563 -34.1205 -34.0972
   -34.0797   2.5258   9.0864  11.6849  12.8743  15.2923  15.4766  15.9847
    16.6801  18.4092  20.7408  21.2493

          k = 0.2500 0.2500-0.2500 (   528 PWs)   bands (ev):

   -74.0199 -38.6506 -38.3876 -38.3666 -34.2391 -34.2369 -34.1831 -33.8891
   -33.8884   1.6362  11.4891  11.4946  11.5678  15.3617  15.3802  16.2856
    17.5761  17.5801  22.1127  24.1756

          k = 0.2500-0.5000 0.0000 (   524 PWs)   bands (ev):

   -74.0128 -38.6245 -38.4311 -38.2062 -34.3818 -34.1678 -33.9989 -33.9350
   -33.5803   1.9227   8.4573  11.8204  14.5010  15.3288  16.2151  16.4972
    17.0647  18.3799  20.2050  23.9331

          k = 0.2500-0.5000 0.2500 (   532 PWs)   bands (ev):

   -74.0249 -38.5832 -38.4979 -38.4720 -34.3126 -34.1574 -34.1202 -34.0962
   -34.0809   2.5241   9.0968  11.6781  12.8672  15.2998  15.4875  15.9794
    16.6731  18.4033  20.7444  21.2602

          k = 0.2500-0.5000-0.5000 (   536 PWs)   bands (ev):

   -74.0320 -38.6602 -38.5361 -38.5188 -34.4932 -34.3062 -34.1396 -34.1384
   -34.0636   3.3475   9.9484   9.9602  12.7361  14.6703  16.0485  16.0630
    16.5987  18.1732  18.2927  22.1758

          k = 0.2500-0.5000-0.2500 (   532 PWs)   bands (ev):

   -74.0249 -38.5831 -38.5059 -38.4641 -34.3126 -34.1574 -34.1199 -34.0965
   -34.0810   2.5240   9.0962  11.6773  12.8685  15.3019  15.4914  15.9836
    16.6681  18.3972  20.7499  21.2549

          k = 0.2500-0.2500 0.0000 (   533 PWs)   bands (ev):

   -74.0325 -38.6005 -38.5863 -38.4275 -34.3938 -34.3669 -34.1517 -34.1392
   -33.8222   0.9979  10.7050  11.1990  14.4563  15.2466  15.6213  16.1403
    16.6945  18.0789  22.3501  23.5813

          k = 0.2500-0.2500 0.2500 (   528 PWs)   bands (ev):

   -74.0198 -38.6547 -38.3893 -38.3608 -34.2388 -34.2369 -34.1826 -33.8896
   -33.8887   1.6365  11.4890  11.4923  11.5668  15.3602  15.3837  16.2876
    17.5747  17.5788  22.1102  24.1753

          k = 0.2500-0.2500-0.5000 (   532 PWs)   bands (ev):

   -74.0249 -38.5689 -38.5063 -38.4779 -34.3137 -34.1563 -34.1208 -34.0969
   -34.0797   2.5260   9.0865  11.6818  12.8749  15.2900  15.4838  15.9921
    16.6736  18.4033  20.7404  21.2502

          k = 0.2500-0.2500-0.2500 (   528 PWs)   bands (ev):

   -74.0199 -38.6388 -38.3917 -38.3744 -34.2390 -34.2373 -34.1829 -33.8891
   -33.8883   1.6364  11.4876  11.4917  11.5692  15.3655  15.3840  16.2941
    17.5680  17.5726  22.1128  24.1949

          k =-0.5000 0.0000 0.0000 (   498 PWs)   bands (ev):

   -73.9623 -38.2910 -37.9351 -37.9183 -33.6861 -33.6851 -33.4457 -33.1975
   -33.1893   1.3779   7.6143  14.1317  14.1360  15.9611  17.6120  17.6706
    19.3823  19.3871  22.0007  23.4509

          k =-0.5000 0.0000 0.2500 (   524 PWs)   bands (ev):

   -74.0131 -38.6355 -38.4045 -38.2215 -34.3825 -34.1651 -34.0001 -33.9367
   -33.5797   1.9281   8.4284  11.8364  14.4742  15.3566  16.2564  16.4585
    17.0862  18.3699  20.2042  23.9702

          k =-0.5000 0.0000-0.5000 (   536 PWs)   bands (ev):

   -74.0386 -38.6677 -38.6368 -38.4831 -34.6564 -34.4659 -34.4629 -33.8960
   -33.7561   2.6721   9.7326   9.7466  14.1306  15.1991  15.2405  16.0187
    16.6653  17.2886  18.7056  26.8985

          k =-0.5000 0.2500 0.0000 (   524 PWs)   bands (ev):

   -74.0130 -38.6355 -38.4197 -38.2064 -34.3815 -34.1661 -33.9989 -33.9366
   -33.5807   1.9272   8.4275  11.8407  14.4799  15.3609  16.2559  16.4575
    17.0767  18.3702  20.2072  23.9649

          k =-0.5000 0.2500 0.2500 (   532 PWs)   bands (ev):

   -74.0250 -38.5944 -38.4935 -38.4651 -34.3112 -34.1588 -34.1191 -34.0958
   -34.0827   2.5273   9.0750  11.6747  12.8850  15.3342  15.4942  15.9722
    16.6540  18.3856  20.7369  21.2313

          k =-0.5000 0.2500-0.5000 (   536 PWs)   bands (ev):

   -74.0318 -38.6488 -38.5485 -38.5176 -34.4946 -34.3048 -34.1413 -34.1383
   -34.0620   3.3480   9.9560   9.9584  12.7277  14.6419  16.0582  16.0916
    16.5831  18.1499  18.2707  22.1985

          k =-0.5000 0.2500-0.2500 (   532 PWs)   bands (ev):

   -74.0250 -38.5945 -38.4878 -38.4707 -34.3113 -34.1588 -34.1192 -34.0956
   -34.0826   2.5272   9.0753  11.6767  12.8843  15.3345  15.4897  15.9675
    16.6578  18.3897  20.7364  21.2329

          k =-0.5000-0.5000 0.0000 (   536 PWs)   bands (ev):

   -74.0386 -38.6673 -38.6524 -38.4678 -34.6553 -34.4659 -34.4641 -33.8948
   -33.7572   2.6695   9.7286   9.7549  14.1476  15.2109  15.2399  16.0099
    16.6534  17.2817  18.7087  26.8870

          k =-0.5000-0.5000 0.2500 (   536 PWs)   bands (ev):

   -74.0318 -38.6345 -38.5476 -38.5328 -34.4957 -34.3037 -34.1413 -34.1395
   -34.0607   3.3462   9.9541   9.9677  12.7184  14.6572  16.0675  16.0873
    16.5747  18.1561  18.2588  22.1849

          k =-0.5000-0.5000-0.5000 (   552 PWs)   bands (ev):

   -74.0574 -38.7803 -38.7664 -38.7473 -34.5903 -34.5875 -34.4068 -34.4052
   -34.4040   4.3426  10.0805  10.0914  10.0958  16.1259  16.1738  17.8095
    17.8269  17.9443  17.9967  18.0204

     the Fermi energy is    16.7102 ev

!    total energy              =    -727.45963879 Ry
     estimated scf accuracy    <       0.00099328 Ry

     convergence has been achieved in   3 iterations

     negative rho (up, down):  9.570E-03 0.000E+00

     Forces acting on atoms (cartesian axes, Ry/au):

     atom    1 type  1   force =    -0.01172771   -0.00050590    0.00147688
     atom    2 type  2   force =     0.01172771    0.00050590   -0.00147688

     Total force =     0.016732     Total SCF correction =     0.031889
     SCF correction compared to forces is large: reduce conv_thr to get better values


     Computing stress (Cartesian axis) and pressure


     negative rho (up, down):  9.570E-03 0.000E+00
          total   stress  (Ry/bohr**3)                   (kbar)     P=   -12902.97
  -0.08771545  -0.00006466  -0.00013200       -12903.39       -9.51      -19.42
  -0.00006466  -0.08789747   0.00008863           -9.51   -12930.16       13.04
  -0.00013200   0.00008863  -0.08752499          -19.42       13.04   -12875.37


     Entering Dynamics:    iteration =     8
                           time      =   0.0077 pico-seconds


ATOMIC_POSITIONS (angstrom)
Fe            0.0019289532        0.0010352977        0.0015679588
Se            1.5206367347        1.5212687787        1.5208920504


     kinetic energy (Ekin) =           0.00002466 Ry
     temperature           =           2.59526862 K 
     Ekin + Etot (const)   =        -727.45961413 Ry
     Ions kinetic stress =            0.01 (kbar)
                                      0.00           0.00           0.00
                                      0.00           0.01           0.02
                                      0.00           0.02           0.03



     Linear momentum :    0.0000000000    0.0000000000   -0.0000000000

     Writing config-only to output data dir ./work/try_0/calculation _try_0.save/
     NEW-OLD atomic charge density approx. for the potential

     Check: negative core charge=   -0.000042

     negative rho (up, down):  9.569E-03 0.000E+00

     total cpu time spent up to now is       20.1 secs

     Self-consistent Calculation

     iteration #  1     ecut=    30.00 Ry     beta= 0.70
     Davidson diagonalization with overlap
     ethr =  1.00E-06,  avg # of iterations =  4.9

     negative rho (up, down):  9.287E-03 0.000E+00

     total cpu time spent up to now is       20.8 secs

     total energy              =    -727.44792745 Ry
     estimated scf accuracy    <       0.01724996 Ry

     iteration #  2     ecut=    30.00 Ry     beta= 0.70
