
     Program PWSCF v.7.1 starts on 29Dec2024 at 17: 1:18 

     This program is part of the open-source Quantum ESPRESSO suite
     for quantum simulation of materials; please cite
         "P. Giannozzi et al., J. Phys.:Condens. Matter 21 395502 (2009);
         "P. Giannozzi et al., J. Phys.:Condens. Matter 29 465901 (2017);
         "P. Giannozzi et al., J. Chem. Phys. 152 154105 (2020);
          URL http://www.quantum-espresso.org", 
     in publications or presentations arising from this work. More details at
     http://www.quantum-espresso.org/quote

     Parallel version (MPI), running on     1 processors

     MPI processes distributed on     1 nodes
     0 MiB available memory on the printing compute node when the environment starts

     Waiting for input...
     Reading input from standard input
Warning: card &CELL ignored
Warning: card / ignored

     Current dimensions of program PWSCF are:
     Max number of different atomic species (ntypx) = 10
     Max number of k-points (npk) =  40000
     Max angular momentum in pseudopotentials (lmaxx) =  4
     file C.pbe-n-kjpaw_psl.1.0.0.UPF: wavefunction(s)  2S 2P renormalized

     gamma-point specific algorithms are used

     Subspace diagonalization in iterative solution of the eigenvalue problem:
     a serial algorithm will be used


     G-vector sticks info
     --------------------
     sticks:   dense  smooth     PW     G-vecs:    dense   smooth      PW
     Sum        9265    5193   1305               671349   281417   35033

     Using Slab Decomposition



     bravais-lattice index     =            0
     lattice parameter (alat)  =      18.8973  a.u.
     unit-cell volume          =    6748.3345 (a.u.)^3
     number of atoms/cell      =            5
     number of atomic types    =            2
     number of electrons       =         8.00
     number of Kohn-Sham states=            4
     kinetic-energy cutoff     =      45.6558  Ry
     charge density cutoff     =     326.2606  Ry
     scf convergence threshold =      1.0E-06
     mixing beta               =       0.7000
     number of iterations used =            8  plain     mixing
     energy convergence thresh.=      0.0E+00
     force convergence thresh. =      0.0E+00
     Exchange-correlation= PBE
                           (   1   4   3   4   0   0   0)
     nstep                     =           50


     celldm(1)=  18.897261  celldm(2)=   0.000000  celldm(3)=   0.000000
     celldm(4)=   0.000000  celldm(5)=   0.000000  celldm(6)=   0.000000

     crystal axes: (cart. coord. in units of alat)
               a(1) = (   1.000000   0.000000   0.000000 )  
               a(2) = (   0.000000   1.000000   0.000000 )  
               a(3) = (   0.000000   0.000000   1.000000 )  

     reciprocal axes: (cart. coord. in units 2 pi/alat)
               b(1) = (  1.000000  0.000000  0.000000 )  
               b(2) = (  0.000000  1.000000  0.000000 )  
               b(3) = (  0.000000  0.000000  1.000000 )  


     PseudoPot. # 1 for C  read from file:
     /Users/qclove00/espresso/pseudo/C.pbe-n-kjpaw_psl.1.0.0.UPF
     MD5 check sum: 5f16ad9a65e90284d1d834d4ab3b0f7d
     Pseudo is Projector augmented-wave + core cor, Zval =  4.0
     Generated using &quot;atomic&quot; code by A. Dal Corso  v.6.3
     Shape of augmentation charge: PSQ
     Using radial grid of 1073 points,  4 beta functions with: 
                l(1) =   0
                l(2) =   0
                l(3) =   1
                l(4) =   1
     Q(r) pseudized with 0 coefficients 


     PseudoPot. # 2 for H  read from file:
     /Users/qclove00/espresso/pseudo/H.pbe-rrkjus_psl.1.0.0.UPF
     MD5 check sum: 3f4114867bd07edc7f1424d066fc1888
     Pseudo is Ultrasoft, Zval =  1.0
     Generated using &quot;atomic&quot; code by A. Dal Corso  v.6.3MaX
     Using radial grid of  929 points,  2 beta functions with: 
                l(1) =   0
                l(2) =   0
     Q(r) pseudized with 0 coefficients 


     atomic species   valence    mass     pseudopotential
        C              4.00    12.01100     C ( 1.00)
        H              1.00     1.00800     H ( 1.00)

     No symmetry found



   Cartesian axes

     site n.     atom                  positions (alat units)
         1           C   tau(   1) = (   0.5000000   0.5000000   0.5000000  )
         2           H   tau(   2) = (   0.5629118   0.5629118   0.5629118  )
         3           H   tau(   3) = (   0.4370882   0.4370882   0.5629118  )
         4           H   tau(   4) = (   0.5629118   0.4370882   0.4370882  )
         5           H   tau(   5) = (   0.4370882   0.5629118   0.4370882  )

     number of k points=     1
                       cart. coord. in units 2pi/alat
        k(    1) = (   0.0000000   0.0000000   0.0000000), wk =   2.0000000

     Dense  grid:   335675 G-vectors     FFT dimensions: ( 120, 120, 120)

     Smooth grid:   140709 G-vectors     FFT dimensions: (  81,  81,  81)

     Estimated max dynamical RAM per process >     547.21 MB

     Initial potential from superposition of free atoms

     starting charge       7.9999, renormalised to       8.0000

     negative rho (up, down):  1.232E-04 0.000E+00
     Starting wfcs are    8 randomized atomic wfcs
     Checking if some PAW data can be deallocated... 

     total cpu time spent up to now is        0.8 secs

     Self-consistent Calculation

     iteration #  1     ecut=    45.66 Ry     beta= 0.70
     Davidson diagonalization with overlap
     ethr =  1.00E-02,  avg # of iterations =  2.0

     negative rho (up, down):  5.243E-04 0.000E+00

     total cpu time spent up to now is        1.4 secs

     total energy              =     -22.98946914 Ry
     estimated scf accuracy    <       0.68656826 Ry

     iteration #  2     ecut=    45.66 Ry     beta= 0.70
     Davidson diagonalization with overlap
     ethr =  8.58E-03,  avg # of iterations =  2.0

     negative rho (up, down):  5.340E-04 0.000E+00

     total cpu time spent up to now is        2.0 secs

     total energy              =     -23.17085288 Ry
     estimated scf accuracy    <       0.21565851 Ry

     iteration #  3     ecut=    45.66 Ry     beta= 0.70
     Davidson diagonalization with overlap
     ethr =  2.70E-03,  avg # of iterations =  2.0

     negative rho (up, down):  7.054E-04 0.000E+00

     total cpu time spent up to now is        2.6 secs

     total energy              =     -23.20145026 Ry
     estimated scf accuracy    <       0.00549529 Ry

     iteration #  4     ecut=    45.66 Ry     beta= 0.70
     Davidson diagonalization with overlap
     ethr =  6.87E-05,  avg # of iterations =  2.0

     negative rho (up, down):  6.955E-04 0.000E+00

     total cpu time spent up to now is        3.2 secs

     total energy              =     -23.20252123 Ry
     estimated scf accuracy    <       0.00330555 Ry

     iteration #  5     ecut=    45.66 Ry     beta= 0.70
     Davidson diagonalization with overlap
     ethr =  4.13E-05,  avg # of iterations =  2.0

     negative rho (up, down):  7.121E-04 0.000E+00

     total cpu time spent up to now is        3.8 secs

     total energy              =     -23.20307284 Ry
     estimated scf accuracy    <       0.00002739 Ry

     iteration #  6     ecut=    45.66 Ry     beta= 0.70
     Davidson diagonalization with overlap
     ethr =  3.42E-07,  avg # of iterations =  4.0

     negative rho (up, down):  7.078E-04 0.000E+00

     total cpu time spent up to now is        4.4 secs

     total energy              =     -23.20282749 Ry
     estimated scf accuracy    <       0.00117109 Ry

     iteration #  7     ecut=    45.66 Ry     beta= 0.70
     Davidson diagonalization with overlap
     ethr =  3.42E-07,  avg # of iterations =  3.0

     negative rho (up, down):  7.116E-04 0.000E+00

     total cpu time spent up to now is        5.0 secs

     total energy              =     -23.20297756 Ry
     estimated scf accuracy    <       0.00001448 Ry

     iteration #  8     ecut=    45.66 Ry     beta= 0.70
     Davidson diagonalization with overlap
     ethr =  1.81E-07,  avg # of iterations =  2.0

     negative rho (up, down):  7.145E-04 0.000E+00

     total cpu time spent up to now is        5.6 secs

     End of self-consistent calculation

          k = 0.0000 0.0000 0.0000 ( 17517 PWs)   bands (ev):

   -16.9066  -9.2889  -9.2889  -9.2889

     highest occupied level (ev):    -9.2889

!    total energy              =     -23.20298218 Ry
     estimated scf accuracy    <       0.00000086 Ry

     convergence has been achieved in   8 iterations

     negative rho (up, down):  7.145E-04 0.000E+00

     Forces acting on atoms (cartesian axes, Ry/au):

     atom    1 type  1   force =     0.00000036    0.00000010   -0.00000178
     atom    2 type  2   force =     0.00449572    0.00449570    0.00449608
     atom    3 type  2   force =    -0.00449582   -0.00449582    0.00449608
     atom    4 type  2   force =     0.00449532   -0.00449543   -0.00449512
     atom    5 type  2   force =    -0.00449557    0.00449545   -0.00449526

     Total force =     0.015573     Total SCF correction =     0.000520

     Molecular Dynamics Calculation

     Starting temperature  =   300.00 K

     temperature is set once at start

     mass C                =    12.01
     mass H                =     1.01
     Time step             =    20.00 a.u.,  0.9676 femto-seconds

     Entering Dynamics:    iteration =     1
                           time      =   0.0010 pico-seconds


ATOMIC_POSITIONS (angstrom)
C             5.0000263698        5.0004518916        4.9993469043
H             5.6104695616        5.6147808647        5.6085317215
H             4.3911158242        4.3555980662        5.6384201005
H             5.6195066197        4.3948747961        4.3848816467
H             4.3785937802        5.6293616801        4.3759486070


     kinetic energy (Ekin) =           0.01140052 Ry
     temperature           =         300.00000000 K 
     Ekin + Etot (const)   =         -23.19158166 Ry

     Linear momentum :    0.0000000000    0.0000000000   -0.0000000000

     Writing config-only to output data dir ./pwscf.save/
     NEW-OLD atomic charge density approx. for the potential

     negative rho (up, down):  7.412E-04 0.000E+00

     total cpu time spent up to now is        6.7 secs

     Self-consistent Calculation

     iteration #  1     ecut=    45.66 Ry     beta= 0.70
     Davidson diagonalization with overlap
     ethr =  1.00E-06,  avg # of iterations =  5.0

     negative rho (up, down):  7.487E-04 0.000E+00

     total cpu time spent up to now is        7.3 secs

     total energy              =     -23.19898200 Ry
     estimated scf accuracy    <       0.00177502 Ry

     iteration #  2     ecut=    45.66 Ry     beta= 0.70
     Davidson diagonalization with overlap
     ethr =  2.22E-05,  avg # of iterations =  2.0

     negative rho (up, down):  7.367E-04 0.000E+00

     total cpu time spent up to now is        7.9 secs

     total energy              =     -23.19945298 Ry
     estimated scf accuracy    <       0.00054714 Ry

     iteration #  3     ecut=    45.66 Ry     beta= 0.70
     Davidson diagonalization with overlap
     ethr =  6.84E-06,  avg # of iterations =  2.0

     negative rho (up, down):  7.344E-04 0.000E+00

     total cpu time spent up to now is        8.5 secs

     total energy              =     -23.19954461 Ry
     estimated scf accuracy    <       0.00000726 Ry

     iteration #  4     ecut=    45.66 Ry     beta= 0.70
     Davidson diagonalization with overlap
     ethr =  9.07E-08,  avg # of iterations =  2.0

     negative rho (up, down):  7.352E-04 0.000E+00

     total cpu time spent up to now is        9.1 secs

     total energy              =     -23.19954654 Ry
     estimated scf accuracy    <       0.00000192 Ry

     iteration #  5     ecut=    45.66 Ry     beta= 0.70
     Davidson diagonalization with overlap
     ethr =  2.40E-08,  avg # of iterations =  1.0

     negative rho (up, down):  7.356E-04 0.000E+00

     total cpu time spent up to now is        9.7 secs

     End of self-consistent calculation

          k = 0.0000 0.0000 0.0000 ( 17517 PWs)   bands (ev):

   -17.0295  -9.4031  -9.3571  -9.2853

     highest occupied level (ev):    -9.2853

!    total energy              =     -23.19954656 Ry
     estimated scf accuracy    <       0.00000023 Ry

     convergence has been achieved in   5 iterations

     negative rho (up, down):  7.356E-04 0.000E+00

     Forces acting on atoms (cartesian axes, Ry/au):

     atom    1 type  1   force =    -0.03637685   -0.01082673    0.00623250
     atom    2 type  2   force =     0.02971549    0.03020440    0.03074020
     atom    3 type  2   force =    -0.00567564   -0.00007161    0.00001841
     atom    4 type  2   force =     0.02656159   -0.02706895   -0.02797967
     atom    5 type  2   force =    -0.01422458    0.00776290   -0.00901144

     Total force =     0.082564     Total SCF correction =     0.000286

     Entering Dynamics:    iteration =     2
                           time      =   0.0019 pico-seconds


ATOMIC_POSITIONS (angstrom)
C             4.9993493808        5.0006944447        4.9988143160
H             5.5986673830        5.6074026303        5.5950277892
H             4.4100420167        4.3402976331        5.6477264432
H             5.6160148606        4.4126310775        4.3924349557
H             4.3830283064        5.6313938823        4.3789390361


     kinetic energy (Ekin) =           0.00820268 Ry
     temperature           =         215.85006105 K 
     Ekin + Etot (const)   =         -23.19134388 Ry

     Linear momentum :   -0.0000000000    0.0000000000   -0.0000000000

     Writing config-only to output data dir ./pwscf.save/
     NEW-OLD atomic charge density approx. for the potential

     negative rho (up, down):  7.512E-04 0.000E+00

     total cpu time spent up to now is       10.8 secs

     Self-consistent Calculation

     iteration #  1     ecut=    45.66 Ry     beta= 0.70
     Davidson diagonalization with overlap
     ethr =  1.00E-06,  avg # of iterations =  5.0

     negative rho (up, down):  7.560E-04 0.000E+00

     total cpu time spent up to now is       11.4 secs

     total energy              =     -23.19461417 Ry
     estimated scf accuracy    <       0.00066803 Ry

     iteration #  2     ecut=    45.66 Ry     beta= 0.70
     Davidson diagonalization with overlap
     ethr =  8.35E-06,  avg # of iterations =  2.0

     negative rho (up, down):  7.494E-04 0.000E+00

     total cpu time spent up to now is       12.0 secs

     total energy              =     -23.19477340 Ry
     estimated scf accuracy    <       0.00016969 Ry

     iteration #  3     ecut=    45.66 Ry     beta= 0.70
     Davidson diagonalization with overlap
     ethr =  2.12E-06,  avg # of iterations =  2.0

     negative rho (up, down):  7.482E-04 0.000E+00

     total cpu time spent up to now is       12.6 secs

     total energy              =     -23.19480297 Ry
     estimated scf accuracy    <       0.00000311 Ry

     iteration #  4     ecut=    45.66 Ry     beta= 0.70
     Davidson diagonalization with overlap
     ethr =  3.89E-08,  avg # of iterations =  2.0

     negative rho (up, down):  7.488E-04 0.000E+00

     total cpu time spent up to now is       13.2 secs

     End of self-consistent calculation

          k = 0.0000 0.0000 0.0000 ( 17517 PWs)   bands (ev):

   -17.1074  -9.4713  -9.4113  -9.2668

     highest occupied level (ev):    -9.2668

!    total energy              =     -23.19480330 Ry
     estimated scf accuracy    <       0.00000052 Ry

     convergence has been achieved in   4 iterations

     negative rho (up, down):  7.488E-04 0.000E+00

     Forces acting on atoms (cartesian axes, Ry/au):

     atom    1 type  1   force =    -0.06179880   -0.01942430    0.01089910
     atom    2 type  2   force =     0.04690567    0.04799502    0.04871925
     atom    3 type  2   force =    -0.00610890    0.00471218   -0.00476213
     atom    4 type  2   force =     0.04158087   -0.04172168   -0.04400822
     atom    5 type  2   force =    -0.02057883    0.00843879   -0.01084800

     Total force =     0.131504     Total SCF correction =     0.000526

     Entering Dynamics:    iteration =     3
                           time      =   0.0029 pico-seconds


ATOMIC_POSITIONS (angstrom)
C             4.9974774908        5.0005614222        4.9984924655
H             5.5976719716        5.6110821428        5.5927484628
H             4.4275607584        4.3260828558        5.6559356214
H             5.6221030688        4.4207749490        4.3898490500
H             4.3827216005        5.6353703279        4.3794301559


     kinetic energy (Ekin) =           0.00388218 Ry
     temperature           =         102.15808368 K 
     Ekin + Etot (const)   =         -23.19092111 Ry

     Linear momentum :   -0.0000000000    0.0000000000   -0.0000000000

     Writing config-only to output data dir ./pwscf.save/
     NEW-OLD atomic charge density approx. for the potential

     negative rho (up, down):  7.464E-04 0.000E+00

     total cpu time spent up to now is       14.2 secs

     Self-consistent Calculation

     iteration #  1     ecut=    45.66 Ry     beta= 0.70
     Davidson diagonalization with overlap
     ethr =  1.00E-06,  avg # of iterations =  4.0

     negative rho (up, down):  7.443E-04 0.000E+00

     total cpu time spent up to now is       14.9 secs

     total energy              =     -23.19465332 Ry
     estimated scf accuracy    <       0.00008906 Ry

     iteration #  2     ecut=    45.66 Ry     beta= 0.70
     Davidson diagonalization with overlap
     ethr =  1.11E-06,  avg # of iterations =  2.0

     negative rho (up, down):  7.459E-04 0.000E+00

     total cpu time spent up to now is       15.5 secs

     total energy              =     -23.19466401 Ry
     estimated scf accuracy    <       0.00001251 Ry

     iteration #  3     ecut=    45.66 Ry     beta= 0.70
     Davidson diagonalization with overlap
     ethr =  1.56E-07,  avg # of iterations =  2.0

     negative rho (up, down):  7.459E-04 0.000E+00

     total cpu time spent up to now is       16.2 secs

     total energy              =     -23.19466632 Ry
     estimated scf accuracy    <       0.00000118 Ry

     iteration #  4     ecut=    45.66 Ry     beta= 0.70
     Davidson diagonalization with overlap
     ethr =  1.48E-08,  avg # of iterations =  1.0

     negative rho (up, down):  7.457E-04 0.000E+00

     total cpu time spent up to now is       16.7 secs

     End of self-consistent calculation

          k = 0.0000 0.0000 0.0000 ( 17517 PWs)   bands (ev):

   -17.0940  -9.4813  -9.4146  -9.2201

     highest occupied level (ev):    -9.2201

!    total energy              =     -23.19466640 Ry
     estimated scf accuracy    <       0.00000004 Ry

     convergence has been achieved in   4 iterations

     negative rho (up, down):  7.457E-04 0.000E+00

     Forces acting on atoms (cartesian axes, Ry/au):

     atom    1 type  1   force =    -0.05727687   -0.02092959    0.01342069
     atom    2 type  2   force =     0.04564070    0.04694065    0.04774853
     atom    3 type  2   force =    -0.00665580    0.00853909   -0.00855589
     atom    4 type  2   force =     0.04050455   -0.04014726   -0.04360786
     atom    5 type  2   force =    -0.02221258    0.00559711   -0.00900548

     Total force =     0.128123     Total SCF correction =     0.000138

     Entering Dynamics:    iteration =     4
                           time      =   0.0039 pico-seconds


ATOMIC_POSITIONS (angstrom)
C             4.9944981329        5.0000237190        4.9984301087
H             5.6071918873        5.6255764832        5.6014700940
H             4.4435460451        4.3138354308        5.6621735765
H             5.6375232678        4.4196691461        4.3772161713
H             4.3772972575        5.6406363126        4.3778464715


     kinetic energy (Ekin) =           0.00371836 Ry
     temperature           =          97.84721152 K 
     Ekin + Etot (const)   =         -23.19094803 Ry

     Linear momentum :    0.0000000000    0.0000000000   -0.0000000000

     Writing config-only to output data dir ./pwscf.save/
     NEW-OLD atomic charge density approx. for the potential

     negative rho (up, down):  7.286E-04 0.000E+00

     total cpu time spent up to now is       17.8 secs

     Self-consistent Calculation

     iteration #  1     ecut=    45.66 Ry     beta= 0.70
     Davidson diagonalization with overlap
     ethr =  1.00E-06,  avg # of iterations =  5.0

     negative rho (up, down):  7.190E-04 0.000E+00

     total cpu time spent up to now is       18.5 secs

     total energy              =     -23.19841379 Ry
     estimated scf accuracy    <       0.00097150 Ry

     iteration #  2     ecut=    45.66 Ry     beta= 0.70
     Davidson diagonalization with overlap
     ethr =  1.21E-05,  avg # of iterations =  2.0

     negative rho (up, down):  7.278E-04 0.000E+00

     total cpu time spent up to now is       19.1 secs

     total energy              =     -23.19868359 Ry
     estimated scf accuracy    <       0.00032121 Ry

     iteration #  3     ecut=    45.66 Ry     beta= 0.70
     Davidson diagonalization with overlap
     ethr =  4.02E-06,  avg # of iterations =  2.0

     negative rho (up, down):  7.298E-04 0.000E+00

     total cpu time spent up to now is       19.7 secs

     total energy              =     -23.19873372 Ry
     estimated scf accuracy    <       0.00000478 Ry

     iteration #  4     ecut=    45.66 Ry     beta= 0.70
     Davidson diagonalization with overlap
     ethr =  5.98E-08,  avg # of iterations =  2.0

     negative rho (up, down):  7.288E-04 0.000E+00

     total cpu time spent up to now is       20.3 secs

     total energy              =     -23.19873535 Ry
     estimated scf accuracy    <       0.00000193 Ry

     iteration #  5     ecut=    45.66 Ry     beta= 0.70
     Davidson diagonalization with overlap
     ethr =  2.42E-08,  avg # of iterations =  1.0

     negative rho (up, down):  7.284E-04 0.000E+00

     total cpu time spent up to now is       20.8 secs

     End of self-consistent calculation

          k = 0.0000 0.0000 0.0000 ( 17517 PWs)   bands (ev):

   -16.9985  -9.5050  -9.3163  -9.1504

     highest occupied level (ev):    -9.1504

!    total energy              =     -23.19873529 Ry
     estimated scf accuracy    <       0.00000027 Ry

     convergence has been achieved in   5 iterations

     negative rho (up, down):  7.284E-04 0.000E+00

     Forces acting on atoms (cartesian axes, Ry/au):

     atom    1 type  1   force =    -0.02358987   -0.01430983    0.01285154
     atom    2 type  2   force =     0.02680776    0.02767364    0.02881237
     atom    3 type  2   force =    -0.00766632    0.01067617   -0.01061507
     atom    4 type  2   force =     0.02353495   -0.02362299   -0.02726466
     atom    5 type  2   force =    -0.01908651   -0.00041699   -0.00378419

     Total force =     0.075898     Total SCF correction =     0.000294

     Entering Dynamics:    iteration =     5
                           time      =   0.0048 pico-seconds


ATOMIC_POSITIONS (angstrom)
C             4.9910626568        4.9992093303        4.9986162409
H             5.6228881408        5.6464466551        5.6168299131
H             4.4577650596        4.3040477264        5.6659658870
H             5.6583657690        4.4131207569        4.3583016893
H             4.3674755035        5.6458062249        4.3753909335


     kinetic energy (Ekin) =           0.00738568 Ry
     temperature           =         194.35115392 K 
     Ekin + Etot (const)   =         -23.19134961 Ry

     Linear momentum :    0.0000000000    0.0000000000   -0.0000000000

     Writing config-only to output data dir ./pwscf.save/
     NEW-OLD atomic charge density approx. for the potential

     negative rho (up, down):  7.060E-04 0.000E+00

     total cpu time spent up to now is       21.9 secs

     Self-consistent Calculation

     iteration #  1     ecut=    45.66 Ry     beta= 0.70
     Davidson diagonalization with overlap
     ethr =  1.00E-06,  avg # of iterations =  5.0

     negative rho (up, down):  6.928E-04 0.000E+00

     total cpu time spent up to now is       22.6 secs

     total energy              =     -23.20041316 Ry
     estimated scf accuracy    <       0.00197881 Ry

     iteration #  2     ecut=    45.66 Ry     beta= 0.70
     Davidson diagonalization with overlap
     ethr =  2.47E-05,  avg # of iterations =  2.0

     negative rho (up, down):  7.053E-04 0.000E+00

     total cpu time spent up to now is       23.2 secs

     total energy              =     -23.20096981 Ry
     estimated scf accuracy    <       0.00068968 Ry

     iteration #  3     ecut=    45.66 Ry     beta= 0.70
     Davidson diagonalization with overlap
     ethr =  8.62E-06,  avg # of iterations =  2.0

     negative rho (up, down):  7.080E-04 0.000E+00

     total cpu time spent up to now is       23.9 secs

     total energy              =     -23.20107651 Ry
     estimated scf accuracy    <       0.00000953 Ry

     iteration #  4     ecut=    45.66 Ry     beta= 0.70
     Davidson diagonalization with overlap
     ethr =  1.19E-07,  avg # of iterations =  3.0

     negative rho (up, down):  7.064E-04 0.000E+00

     total cpu time spent up to now is       24.6 secs

     total energy              =     -23.20108014 Ry
     estimated scf accuracy    <       0.00000465 Ry

     iteration #  5     ecut=    45.66 Ry     beta= 0.70
     Davidson diagonalization with overlap
     ethr =  5.82E-08,  avg # of iterations =  2.0

     negative rho (up, down):  7.060E-04 0.000E+00

     total cpu time spent up to now is       25.1 secs

     End of self-consistent calculation

          k = 0.0000 0.0000 0.0000 ( 17517 PWs)   bands (ev):

   -16.8615  -9.5308  -9.1725  -9.0674

     highest occupied level (ev):    -9.0674

!    total energy              =     -23.20108039 Ry
     estimated scf accuracy    <       0.00000031 Ry

     convergence has been achieved in   5 iterations

     negative rho (up, down):  7.060E-04 0.000E+00

     Forces acting on atoms (cartesian axes, Ry/au):

     atom    1 type  1   force =     0.02033935   -0.00276252    0.00846651
     atom    2 type  2   force =     0.00153711    0.00167278    0.00343218
     atom    3 type  2   force =    -0.00906097    0.01091185   -0.01078699
     atom    4 type  2   force =    -0.00008226   -0.00175414   -0.00442941
     atom    5 type  2   force =    -0.01273323   -0.00806798    0.00331771

     Total force =     0.032991     Total SCF correction =     0.000312

     Entering Dynamics:    iteration =     6
                           time      =   0.0058 pico-seconds


ATOMIC_POSITIONS (angstrom)
C             4.9880204490        4.9983415274        4.9989660760
H             5.6389385350        5.6677022254        5.6329804846
H             4.4698964836        4.2967740433        5.6672729434
H             5.6791893187        4.4061682250        4.3383667001
H             4.3547200948        5.6491173263        4.3736997742


     kinetic energy (Ekin) =           0.00958665 Ry
     temperature           =         252.26883820 K 
     Ekin + Etot (const)   =         -23.19149373 Ry

     Linear momentum :    0.0000000000   -0.0000000000   -0.0000000000

     Writing config-only to output data dir ./pwscf.save/
     NEW-OLD atomic charge density approx. for the potential

     negative rho (up, down):  6.855E-04 0.000E+00

     total cpu time spent up to now is       26.2 secs

     Self-consistent Calculation

     iteration #  1     ecut=    45.66 Ry     beta= 0.70
     Davidson diagonalization with overlap
     ethr =  1.00E-06,  avg # of iterations =  5.0

     negative rho (up, down):  6.733E-04 0.000E+00

     total cpu time spent up to now is       26.8 secs

     total energy              =     -23.19828837 Ry
     estimated scf accuracy    <       0.00182958 Ry

     iteration #  2     ecut=    45.66 Ry     beta= 0.70
     Davidson diagonalization with overlap
     ethr =  2.29E-05,  avg # of iterations =  2.0

     negative rho (up, down):  6.853E-04 0.000E+00

     total cpu time spent up to now is       27.4 secs

     total energy              =     -23.19879666 Ry
     estimated scf accuracy    <       0.00065698 Ry

     iteration #  3     ecut=    45.66 Ry     beta= 0.70
     Davidson diagonalization with overlap
     ethr =  8.21E-06,  avg # of iterations =  2.0

     negative rho (up, down):  6.876E-04 0.000E+00

     total cpu time spent up to now is       28.0 secs

     total energy              =     -23.19889870 Ry
     estimated scf accuracy    <       0.00000883 Ry

     iteration #  4     ecut=    45.66 Ry     beta= 0.70
     Davidson diagonalization with overlap
     ethr =  1.10E-07,  avg # of iterations =  3.0

     negative rho (up, down):  6.861E-04 0.000E+00

     total cpu time spent up to now is       28.6 secs

     total energy              =     -23.19890207 Ry
     estimated scf accuracy    <       0.00000481 Ry

     iteration #  5     ecut=    45.66 Ry     beta= 0.70
     Davidson diagonalization with overlap
     ethr =  6.01E-08,  avg # of iterations =  2.0

     negative rho (up, down):  6.859E-04 0.000E+00

     total cpu time spent up to now is       29.1 secs

     End of self-consistent calculation

          k = 0.0000 0.0000 0.0000 ( 17517 PWs)   bands (ev):

   -16.7326  -9.5505  -9.0497  -8.9789

     highest occupied level (ev):    -8.9789

!    total energy              =     -23.19890249 Ry
     estimated scf accuracy    <       0.00000019 Ry

     convergence has been achieved in   5 iterations

     negative rho (up, down):  6.859E-04 0.000E+00

     Forces acting on atoms (cartesian axes, Ry/au):

     atom    1 type  1   force =     0.05714764    0.00944795    0.00144962
     atom    2 type  2   force =    -0.02000240   -0.02048638   -0.01806012
     atom    3 type  2   force =    -0.01065026    0.00942762   -0.00929136
     atom    4 type  2   force =    -0.02105009    0.01678868    0.01575043
     atom    5 type  2   force =    -0.00544489   -0.01517787    0.01015143

     Total force =     0.078281     Total SCF correction =     0.000220

     Entering Dynamics:    iteration =     7
                           time      =   0.0068 pico-seconds


ATOMIC_POSITIONS (angstrom)
C             4.9860832101        4.9976564038        4.9993439399
H             5.6503805035        5.6842378634        5.6449701184
H             4.4795741562        4.2916724247        5.6664393298
H             5.6951630607        4.4030836985        4.3220605102
H             4.3407102192        5.6489315428        4.3743474399


     kinetic energy (Ekin) =           0.00761860 Ry
     temperature           =         200.48033952 K 
     Ekin + Etot (const)   =         -23.19128389 Ry

     Linear momentum :    0.0000000000    0.0000000000   -0.0000000000

     Writing config-only to output data dir ./pwscf.save/
     NEW-OLD atomic charge density approx. for the potential

     negative rho (up, down):  6.711E-04 0.000E+00

     total cpu time spent up to now is       30.2 secs

     Self-consistent Calculation

     iteration #  1     ecut=    45.66 Ry     beta= 0.70
     Davidson diagonalization with overlap
     ethr =  1.00E-06,  avg # of iterations =  5.0

     negative rho (up, down):  6.627E-04 0.000E+00

     total cpu time spent up to now is       30.8 secs

     total energy              =     -23.19445422 Ry
     estimated scf accuracy    <       0.00091325 Ry

     iteration #  2     ecut=    45.66 Ry     beta= 0.70
     Davidson diagonalization with overlap
     ethr =  1.14E-05,  avg # of iterations =  2.0

     negative rho (up, down):  6.710E-04 0.000E+00

     total cpu time spent up to now is       31.4 secs

     total energy              =     -23.19469839 Ry
     estimated scf accuracy    <       0.00032633 Ry

     iteration #  3     ecut=    45.66 Ry     beta= 0.70
     Davidson diagonalization with overlap
     ethr =  4.08E-06,  avg # of iterations =  2.0

     negative rho (up, down):  6.724E-04 0.000E+00

     total cpu time spent up to now is       32.0 secs

     total energy              =     -23.19475018 Ry
     estimated scf accuracy    <       0.00000436 Ry

     iteration #  4     ecut=    45.66 Ry     beta= 0.70
     Davidson diagonalization with overlap
     ethr =  5.45E-08,  avg # of iterations =  3.0

     negative rho (up, down):  6.714E-04 0.000E+00

     total cpu time spent up to now is       32.6 secs

     total energy              =     -23.19475172 Ry
     estimated scf accuracy    <       0.00000215 Ry

     iteration #  5     ecut=    45.66 Ry     beta= 0.70
     Davidson diagonalization with overlap
     ethr =  2.69E-08,  avg # of iterations =  2.0

     negative rho (up, down):  6.712E-04 0.000E+00

     total cpu time spent up to now is       33.2 secs

     End of self-consistent calculation

          k = 0.0000 0.0000 0.0000 ( 17517 PWs)   bands (ev):

   -16.6449  -9.5580  -8.9907  -8.8963

     highest occupied level (ev):    -8.8963

!    total energy              =     -23.19475187 Ry
     estimated scf accuracy    <       0.00000012 Ry

     convergence has been achieved in   5 iterations

     negative rho (up, down):  6.712E-04 0.000E+00

     Forces acting on atoms (cartesian axes, Ry/au):

     atom    1 type  1   force =     0.07973194    0.01928745   -0.00543631
     atom    2 type  2   force =    -0.03366902   -0.03442961   -0.03154269
     atom    3 type  2   force =    -0.01202898    0.00685562   -0.00679070
     atom    4 type  2   force =    -0.03476987    0.02821409    0.02886065
     atom    5 type  2   force =     0.00073592   -0.01992755    0.01490904

     Total force =     0.117339     Total SCF correction =     0.000182

     Entering Dynamics:    iteration =     8
                           time      =   0.0077 pico-seconds


ATOMIC_POSITIONS (angstrom)
C             4.9856876156        4.9973442097        4.9996166910
H             5.6540653448        5.6928411377        5.6496925171
H             4.4864804274        4.2881502975        5.6640411819
H             5.7031260468        4.4064995193        4.3124036311
H             4.3268698960        5.6441545780        4.3784300547


     kinetic energy (Ekin) =           0.00374373 Ry
     temperature           =          98.51468016 K 
     Ekin + Etot (const)   =         -23.19100814 Ry

     Linear momentum :    0.0000000000    0.0000000000   -0.0000000000

     Writing config-only to output data dir ./pwscf.save/
     NEW-OLD atomic charge density approx. for the potential

     negative rho (up, down):  6.655E-04 0.000E+00

     total cpu time spent up to now is       34.3 secs

     Self-consistent Calculation

     iteration #  1     ecut=    45.66 Ry     beta= 0.70
     Davidson diagonalization with overlap
     ethr =  1.00E-06,  avg # of iterations =  4.0

     negative rho (up, down):  6.626E-04 0.000E+00

     total cpu time spent up to now is       34.9 secs

     total energy              =     -23.19259337 Ry
     estimated scf accuracy    <       0.00015731 Ry

     iteration #  2     ecut=    45.66 Ry     beta= 0.70
     Davidson diagonalization with overlap
     ethr =  1.97E-06,  avg # of iterations =  2.0

     negative rho (up, down):  6.654E-04 0.000E+00

     total cpu time spent up to now is       35.5 secs

     total energy              =     -23.19262567 Ry
     estimated scf accuracy    <       0.00003928 Ry

     iteration #  3     ecut=    45.66 Ry     beta= 0.70
     Davidson diagonalization with overlap
     ethr =  4.91E-07,  avg # of iterations =  2.0

     negative rho (up, down):  6.659E-04 0.000E+00

     total cpu time spent up to now is       36.3 secs

     total energy              =     -23.19263248 Ry
     estimated scf accuracy    <       0.00000101 Ry

     iteration #  4     ecut=    45.66 Ry     beta= 0.70
     Davidson diagonalization with overlap
     ethr =  1.26E-08,  avg # of iterations =  2.0

     negative rho (up, down):  6.655E-04 0.000E+00

     total cpu time spent up to now is       36.8 secs

     End of self-consistent calculation

          k = 0.0000 0.0000 0.0000 ( 17517 PWs)   bands (ev):

   -16.6110  -9.5475  -8.9844  -8.8597

     highest occupied level (ev):    -8.8597

!    total energy              =     -23.19263251 Ry
     estimated scf accuracy    <       0.00000019 Ry

     convergence has been achieved in   4 iterations

     negative rho (up, down):  6.655E-04 0.000E+00

     Forces acting on atoms (cartesian axes, Ry/au):

     atom    1 type  1   force =     0.08749990    0.02474643   -0.00976064
     atom    2 type  2   force =    -0.03905304   -0.03966184   -0.03666172
     atom    3 type  2   force =    -0.01268529    0.00412715   -0.00421307
     atom    4 type  2   force =    -0.04026212    0.03211876    0.03402135
     atom    5 type  2   force =     0.00450055   -0.02133050    0.01661408

     Total force =     0.132526     Total SCF correction =     0.000251

     Entering Dynamics:    iteration =     9
                           time      =   0.0087 pico-seconds


ATOMIC_POSITIONS (angstrom)
C             4.9869838616        4.9975104963        4.9997007169
H             5.6487526138        5.6923065773        5.6459682882
H             4.4904640882        4.2855790398        5.6606723702
H             5.7018128972        4.4173152974        4.3105850544
H             4.3140664709        5.6344632012        4.3863404473


     kinetic energy (Ekin) =           0.00175389 Ry
     temperature           =          46.15295963 K 
     Ekin + Etot (const)   =         -23.19087862 Ry

     Linear momentum :    0.0000000000    0.0000000000    0.0000000000

     Writing config-only to output data dir ./pwscf.save/
     NEW-OLD atomic charge density approx. for the potential

     negative rho (up, down):  6.707E-04 0.000E+00

     total cpu time spent up to now is       37.9 secs

     Self-consistent Calculation

     iteration #  1     ecut=    45.66 Ry     beta= 0.70
     Davidson diagonalization with overlap
     ethr =  1.00E-06,  avg # of iterations =  4.0

     negative rho (up, down):  6.728E-04 0.000E+00

     total cpu time spent up to now is       38.5 secs

     total energy              =     -23.19449170 Ry
     estimated scf accuracy    <       0.00011266 Ry

     iteration #  2     ecut=    45.66 Ry     beta= 0.70
     Davidson diagonalization with overlap
     ethr =  1.41E-06,  avg # of iterations =  2.0

     negative rho (up, down):  6.703E-04 0.000E+00

     total cpu time spent up to now is       39.1 secs

     total energy              =     -23.19451433 Ry
     estimated scf accuracy    <       0.00002979 Ry

     iteration #  3     ecut=    45.66 Ry     beta= 0.70
     Davidson diagonalization with overlap
     ethr =  3.72E-07,  avg # of iterations =  2.0

     negative rho (up, down):  6.701E-04 0.000E+00

     total cpu time spent up to now is       39.6 secs

     End of self-consistent calculation

          k = 0.0000 0.0000 0.0000 ( 17517 PWs)   bands (ev):

   -16.6396  -9.5208  -9.0290  -8.8919

     highest occupied level (ev):    -8.8919

!    total energy              =     -23.19451959 Ry
     estimated scf accuracy    <       0.00000086 Ry

     convergence has been achieved in   3 iterations

     negative rho (up, down):  6.701E-04 0.000E+00

     Forces acting on atoms (cartesian axes, Ry/au):

     atom    1 type  1   force =     0.08102377    0.02455911   -0.01006524
     atom    2 type  2   force =    -0.03644997   -0.03634967   -0.03369592
     atom    3 type  2   force =    -0.01219322    0.00196928   -0.00226283
     atom    4 type  2   force =    -0.03747268    0.02881937    0.03114842
     atom    5 type  2   force =     0.00509210   -0.01899809    0.01487557

     Total force =     0.122578     Total SCF correction =     0.000157

     Entering Dynamics:    iteration =    10
                           time      =   0.0097 pico-seconds


ATOMIC_POSITIONS (angstrom)
C             4.9898467298        4.9981516417        4.9995901279
H             5.6350420410        5.6833972849        5.6344807340
H             4.4916385089        4.2834614919        5.6567822162
H             5.6918662808        4.4347708742        4.3159428749
H             4.3024362328        5.6203947851        4.3976780771


     kinetic energy (Ekin) =           0.00355589 Ry
     temperature           =          93.57179347 K 
     Ekin + Etot (const)   =         -23.19096370 Ry

     Linear momentum :    0.0000000000   -0.0000000000    0.0000000000

     Writing config-only to output data dir ./pwscf.save/
     NEW-OLD atomic charge density approx. for the potential

     negative rho (up, down):  6.858E-04 0.000E+00

     total cpu time spent up to now is       40.7 secs

     Self-consistent Calculation

     iteration #  1     ecut=    45.66 Ry     beta= 0.70
     Davidson diagonalization with overlap
     ethr =  1.00E-06,  avg # of iterations =  5.0

     negative rho (up, down):  6.923E-04 0.000E+00

     total cpu time spent up to now is       41.4 secs

     total energy              =     -23.19884823 Ry
     estimated scf accuracy    <       0.00077110 Ry

     iteration #  2     ecut=    45.66 Ry     beta= 0.70
     Davidson diagonalization with overlap
     ethr =  9.64E-06,  avg # of iterations =  2.0

     negative rho (up, down):  6.845E-04 0.000E+00

     total cpu time spent up to now is       42.0 secs

     total energy              =     -23.19905851 Ry
     estimated scf accuracy    <       0.00027856 Ry

     iteration #  3     ecut=    45.66 Ry     beta= 0.70
     Davidson diagonalization with overlap
     ethr =  3.48E-06,  avg # of iterations =  2.0

     negative rho (up, down):  6.828E-04 0.000E+00

     total cpu time spent up to now is       42.6 secs

     total energy              =     -23.19910221 Ry
     estimated scf accuracy    <       0.00000407 Ry

     iteration #  4     ecut=    45.66 Ry     beta= 0.70
     Davidson diagonalization with overlap
     ethr =  5.08E-08,  avg # of iterations =  3.0

     negative rho (up, down):  6.839E-04 0.000E+00

     total cpu time spent up to now is       43.2 secs

     total energy              =     -23.19910366 Ry
     estimated scf accuracy    <       0.00000220 Ry

     iteration #  5     ecut=    45.66 Ry     beta= 0.70
     Davidson diagonalization with overlap
     ethr =  2.76E-08,  avg # of iterations =  2.0

     negative rho (up, down):  6.842E-04 0.000E+00

     total cpu time spent up to now is       43.8 secs

     End of self-consistent calculation

          k = 0.0000 0.0000 0.0000 ( 17517 PWs)   bands (ev):

   -16.7171  -9.4698  -9.1104  -8.9846

     highest occupied level (ev):    -8.9846

!    total energy              =     -23.19910373 Ry
     estimated scf accuracy    <       0.00000019 Ry

     convergence has been achieved in   5 iterations

     negative rho (up, down):  6.842E-04 0.000E+00

     Forces acting on atoms (cartesian axes, Ry/au):

     atom    1 type  1   force =     0.05948949    0.01822254   -0.00635661
     atom    2 type  2   force =    -0.02573375   -0.02421711   -0.02246091
     atom    3 type  2   force =    -0.01021736    0.00102491   -0.00151019
     atom    4 type  2   force =    -0.02630505    0.01853351    0.02004781
     atom    5 type  2   force =     0.00276668   -0.01356385    0.01027991

     Total force =     0.086643     Total SCF correction =     0.000231

     Entering Dynamics:    iteration =    11
                           time      =   0.0106 pico-seconds


ATOMIC_POSITIONS (angstrom)
C             4.9938598477        4.9991451261        4.9993566317
H             5.6154025750        5.6689085239        5.6178183286
H             4.4904589138        4.2815800761        5.6525441236
H             5.6758591486        4.4564964547        4.3259195825
H             4.2914434196        5.6032013444        4.4113841321


     kinetic energy (Ekin) =           0.00788534 Ry
     temperature           =         207.49949017 K 
     Ekin + Etot (const)   =         -23.19121839 Ry

     Linear momentum :    0.0000000000   -0.0000000000    0.0000000000

     Writing config-only to output data dir ./pwscf.save/
     NEW-OLD atomic charge density approx. for the potential

     negative rho (up, down):  7.078E-04 0.000E+00

     total cpu time spent up to now is       44.8 secs

     Self-consistent Calculation

     iteration #  1     ecut=    45.66 Ry     beta= 0.70
     Davidson diagonalization with overlap
     ethr =  1.00E-06,  avg # of iterations =  5.0

     negative rho (up, down):  7.161E-04 0.000E+00

     total cpu time spent up to now is       45.5 secs

     total energy              =     -23.20194676 Ry
     estimated scf accuracy    <       0.00165017 Ry

     iteration #  2     ecut=    45.66 Ry     beta= 0.70
     Davidson diagonalization with overlap
     ethr =  2.06E-05,  avg # of iterations =  2.0

     negative rho (up, down):  7.045E-04 0.000E+00

     total cpu time spent up to now is       46.1 secs

     total energy              =     -23.20239947 Ry
     estimated scf accuracy    <       0.00057176 Ry

     iteration #  3     ecut=    45.66 Ry     beta= 0.70
     Davidson diagonalization with overlap
     ethr =  7.15E-06,  avg # of iterations =  2.0

     negative rho (up, down):  7.019E-04 0.000E+00

     total cpu time spent up to now is       46.7 secs

     total energy              =     -23.20248984 Ry
     estimated scf accuracy    <       0.00000805 Ry

     iteration #  4     ecut=    45.66 Ry     beta= 0.70
     Davidson diagonalization with overlap
     ethr =  1.01E-07,  avg # of iterations =  3.0

     negative rho (up, down):  7.033E-04 0.000E+00

     total cpu time spent up to now is       47.3 secs

     total energy              =     -23.20249270 Ry
     estimated scf accuracy    <       0.00000385 Ry

     iteration #  5     ecut=    45.66 Ry     beta= 0.70
     Davidson diagonalization with overlap
     ethr =  4.81E-08,  avg # of iterations =  2.0

     negative rho (up, down):  7.037E-04 0.000E+00

     total cpu time spent up to now is       47.8 secs

     End of self-consistent calculation

          k = 0.0000 0.0000 0.0000 ( 17517 PWs)   bands (ev):

   -16.8378  -9.4040  -9.2204  -9.1285

     highest occupied level (ev):    -9.1285

!    total energy              =     -23.20249285 Ry
     estimated scf accuracy    <       0.00000031 Ry

     convergence has been achieved in   5 iterations

     negative rho (up, down):  7.037E-04 0.000E+00

     Forces acting on atoms (cartesian axes, Ry/au):

     atom    1 type  1   force =     0.02296088    0.00640139   -0.00007094
     atom    2 type  2   force =    -0.00699656   -0.00304028   -0.00283402
     atom    3 type  2   force =    -0.00701711    0.00084794   -0.00152665
     atom    4 type  2   force =    -0.00704938    0.00171761    0.00076521
     atom    5 type  2   force =    -0.00189782   -0.00592667    0.00366640

     Total force =     0.028144     Total SCF correction =     0.000303

     Entering Dynamics:    iteration =    12
                           time      =   0.0116 pico-seconds


ATOMIC_POSITIONS (angstrom)
C             4.9983169219        5.0002623835        4.9991217640
H             5.5941511470        5.6537193023        5.6005029821
H             4.4876626200        4.2798940203        5.6479543008
H             5.6582278832        4.4786177626        4.3360725889
H             4.2800133604        5.5846424378        4.4259349031


     kinetic energy (Ekin) =           0.01103513 Ry
     temperature           =         290.38492189 K 
     Ekin + Etot (const)   =         -23.19145772 Ry

     Linear momentum :    0.0000000000   -0.0000000000    0.0000000000

     Writing config-only to output data dir ./pwscf.save/
     NEW-OLD atomic charge density approx. for the potential

     negative rho (up, down):  7.305E-04 0.000E+00

     total cpu time spent up to now is       48.9 secs

     Self-consistent Calculation

     iteration #  1     ecut=    45.66 Ry     beta= 0.70
     Davidson diagonalization with overlap
     ethr =  1.00E-06,  avg # of iterations =  5.0

     negative rho (up, down):  7.392E-04 0.000E+00

     total cpu time spent up to now is       49.6 secs

     total energy              =     -23.20054027 Ry
     estimated scf accuracy    <       0.00197350 Ry

     iteration #  2     ecut=    45.66 Ry     beta= 0.70
     Davidson diagonalization with overlap
     ethr =  2.47E-05,  avg # of iterations =  2.0

     negative rho (up, down):  7.265E-04 0.000E+00

     total cpu time spent up to now is       50.1 secs

     total energy              =     -23.20107710 Ry
     estimated scf accuracy    <       0.00065154 Ry

     iteration #  3     ecut=    45.66 Ry     beta= 0.70
     Davidson diagonalization with overlap
     ethr =  8.14E-06,  avg # of iterations =  2.0

     negative rho (up, down):  7.236E-04 0.000E+00

     total cpu time spent up to now is       50.8 secs

     total energy              =     -23.20118170 Ry
     estimated scf accuracy    <       0.00000907 Ry

     iteration #  4     ecut=    45.66 Ry     beta= 0.70
     Davidson diagonalization with overlap
     ethr =  1.13E-07,  avg # of iterations =  3.0

     negative rho (up, down):  7.250E-04 0.000E+00

     total cpu time spent up to now is       51.4 secs

     total energy              =     -23.20118465 Ry
     estimated scf accuracy    <       0.00000359 Ry

     iteration #  5     ecut=    45.66 Ry     beta= 0.70
     Davidson diagonalization with overlap
     ethr =  4.49E-08,  avg # of iterations =  2.0

     negative rho (up, down):  7.255E-04 0.000E+00

     total cpu time spent up to now is       51.9 secs

     End of self-consistent calculation

          k = 0.0000 0.0000 0.0000 ( 17517 PWs)   bands (ev):

   -16.9728  -9.3590  -9.3065  -9.2919

     highest occupied level (ev):    -9.2919

!    total energy              =     -23.20118471 Ry
     estimated scf accuracy    <       0.00000036 Ry

     convergence has been achieved in   5 iterations

     negative rho (up, down):  7.255E-04 0.000E+00

     Forces acting on atoms (cartesian axes, Ry/au):

     atom    1 type  1   force =    -0.02385670   -0.00882726    0.00618821
     atom    2 type  2   force =     0.01687173    0.02430312    0.02244022
     atom    3 type  2   force =    -0.00290571    0.00102846   -0.00185090
     atom    4 type  2   force =     0.01693089   -0.01861686   -0.02355768
     atom    5 type  2   force =    -0.00704021    0.00211254   -0.00321984

     Total force =     0.057704     Total SCF correction =     0.000337

     Entering Dynamics:    iteration =    13
                           time      =   0.0126 pico-seconds


ATOMIC_POSITIONS (angstrom)
C             5.0023127187        5.0012089630        4.9990065473
H             5.5767868579        5.6441293642        5.5883577187
H             4.4841968698        4.2784449152        5.6429380413
H             5.6444973862        4.4964498650        4.3407980562
H             4.2669612825        5.5665702464        4.4397438426


     kinetic energy (Ekin) =           0.00980642 Ry
     temperature           =         258.05192837 K 
     Ekin + Etot (const)   =         -23.19137829 Ry

     Linear momentum :    0.0000000000   -0.0000000000    0.0000000000

     Writing config-only to output data dir ./pwscf.save/
     NEW-OLD atomic charge density approx. for the potential

     negative rho (up, down):  7.470E-04 0.000E+00

     total cpu time spent up to now is       53.0 secs

     Self-consistent Calculation

     iteration #  1     ecut=    45.66 Ry     beta= 0.70
     Davidson diagonalization with overlap
     ethr =  1.00E-06,  avg # of iterations =  5.0

     negative rho (up, down):  7.542E-04 0.000E+00

     total cpu time spent up to now is       53.6 secs

     total energy              =     -23.19613650 Ry
     estimated scf accuracy    <       0.00115793 Ry

     iteration #  2     ecut=    45.66 Ry     beta= 0.70
     Davidson diagonalization with overlap
     ethr =  1.45E-05,  avg # of iterations =  2.0

     negative rho (up, down):  7.448E-04 0.000E+00

     total cpu time spent up to now is       54.4 secs

     total energy              =     -23.19644113 Ry
     estimated scf accuracy    <       0.00036175 Ry

     iteration #  3     ecut=    45.66 Ry     beta= 0.70
     Davidson diagonalization with overlap
     ethr =  4.52E-06,  avg # of iterations =  2.0

     negative rho (up, down):  7.427E-04 0.000E+00

     total cpu time spent up to now is       55.0 secs

     total energy              =     -23.19650038 Ry
     estimated scf accuracy    <       0.00000545 Ry

     iteration #  4     ecut=    45.66 Ry     beta= 0.70
     Davidson diagonalization with overlap
     ethr =  6.82E-08,  avg # of iterations =  3.0

     negative rho (up, down):  7.437E-04 0.000E+00

     total cpu time spent up to now is       55.6 secs

     total energy              =     -23.19650179 Ry
     estimated scf accuracy    <       0.00000193 Ry

     iteration #  5     ecut=    45.66 Ry     beta= 0.70
     Davidson diagonalization with overlap
     ethr =  2.41E-08,  avg # of iterations =  2.0

     negative rho (up, down):  7.441E-04 0.000E+00

     total cpu time spent up to now is       56.1 secs

     End of self-consistent calculation

          k = 0.0000 0.0000 0.0000 ( 17517 PWs)   bands (ev):

   -17.0764  -9.4479  -9.4263  -9.2384

     highest occupied level (ev):    -9.2384

!    total energy              =     -23.19650183 Ry
     estimated scf accuracy    <       0.00000019 Ry

     convergence has been achieved in   5 iterations

     negative rho (up, down):  7.441E-04 0.000E+00

     Forces acting on atoms (cartesian axes, Ry/au):

     atom    1 type  1   force =    -0.06519290   -0.02263670    0.01029925
     atom    2 type  2   force =     0.03732287    0.04828455    0.04440395
     atom    3 type  2   force =     0.00138025    0.00071988   -0.00168176
     atom    4 type  2   force =     0.03716176   -0.03524568   -0.04426133
     atom    5 type  2   force =    -0.01067198    0.00887796   -0.00876011

     Total force =     0.124184     Total SCF correction =     0.000243

     Entering Dynamics:    iteration =    14
                           time      =   0.0135 pico-seconds


ATOMIC_POSITIONS (angstrom)
C             5.0050479885        5.0017178540        4.9990904702
H             5.5680215197        5.6456638786        5.5864428439
H             4.4810491195        4.2771616667        5.6375343150
H             5.6393287230        4.5061615863        4.3353259939
H             4.2514504490        5.5505434797        4.4515345081


     kinetic energy (Ekin) =           0.00555753 Ry
     temperature           =         146.24412464 K 
     Ekin + Etot (const)   =         -23.19094430 Ry

     Linear momentum :    0.0000000000    0.0000000000   -0.0000000000

     Writing config-only to output data dir ./pwscf.save/
     NEW-OLD atomic charge density approx. for the potential

     negative rho (up, down):  7.503E-04 0.000E+00

     total cpu time spent up to now is       57.2 secs

     Self-consistent Calculation

     iteration #  1     ecut=    45.66 Ry     beta= 0.70
     Davidson diagonalization with overlap
     ethr =  1.00E-06,  avg # of iterations =  4.0

     negative rho (up, down):  7.519E-04 0.000E+00

     total cpu time spent up to now is       57.8 secs

     total energy              =     -23.19454603 Ry
     estimated scf accuracy    <       0.00014165 Ry

     iteration #  2     ecut=    45.66 Ry     beta= 0.70
     Davidson diagonalization with overlap
     ethr =  1.77E-06,  avg # of iterations =  2.0

     negative rho (up, down):  7.495E-04 0.000E+00

     total cpu time spent up to now is       58.4 secs

     total energy              =     -23.19456684 Ry
     estimated scf accuracy    <       0.00002502 Ry

     iteration #  3     ecut=    45.66 Ry     beta= 0.70
     Davidson diagonalization with overlap
     ethr =  3.13E-07,  avg # of iterations =  2.0

     negative rho (up, down):  7.493E-04 0.000E+00

     total cpu time spent up to now is       59.0 secs

     total energy              =     -23.19457161 Ry
     estimated scf accuracy    <       0.00000156 Ry

     iteration #  4     ecut=    45.66 Ry     beta= 0.70
     Davidson diagonalization with overlap
     ethr =  1.95E-08,  avg # of iterations =  1.0

     negative rho (up, down):  7.496E-04 0.000E+00

     total cpu time spent up to now is       59.6 secs

     End of self-consistent calculation

          k = 0.0000 0.0000 0.0000 ( 17517 PWs)   bands (ev):

   -17.1043  -9.5109  -9.4814  -9.1657

     highest occupied level (ev):    -9.1657

!    total energy              =     -23.19457164 Ry
     estimated scf accuracy    <       0.00000009 Ry

     convergence has been achieved in   4 iterations

     negative rho (up, down):  7.496E-04 0.000E+00

     Forces acting on atoms (cartesian axes, Ry/au):

     atom    1 type  1   force =    -0.08017412   -0.02825702    0.01131914
     atom    2 type  2   force =     0.04288652    0.05527827    0.05045341
     atom    3 type  2   force =     0.00514033   -0.00063879   -0.00045995
     atom    4 type  2   force =     0.04292449   -0.03932867   -0.04971188
     atom    5 type  2   force =    -0.01077722    0.01294620   -0.01160073

     Total force =     0.145261     Total SCF correction =     0.000179

     Entering Dynamics:    iteration =    15
                           time      =   0.0145 pico-seconds


ATOMIC_POSITIONS (angstrom)
C             5.0062330644        5.0016803858        4.9993932526
H             5.5691369624        5.6599341556        5.5961521148
H             4.4790856693        4.2757312453        5.6320246195
H             5.6440495889        4.5068122319        4.3184006313
H             4.2334566118        5.5374994363        4.4606524389


     kinetic energy (Ekin) =           0.00381738 Ry
     temperature           =         100.45267583 K 
     Ekin + Etot (const)   =         -23.19075427 Ry

     Linear momentum :    0.0000000000    0.0000000000   -0.0000000000

     Writing config-only to output data dir ./pwscf.save/
     NEW-OLD atomic charge density approx. for the potential

     negative rho (up, down):  7.387E-04 0.000E+00

     total cpu time spent up to now is       60.7 secs

     Self-consistent Calculation

     iteration #  1     ecut=    45.66 Ry     beta= 0.70
     Davidson diagonalization with overlap
     ethr =  1.00E-06,  avg # of iterations =  4.0

     negative rho (up, down):  7.321E-04 0.000E+00

     total cpu time spent up to now is       61.4 secs

     total energy              =     -23.19781325 Ry
     estimated scf accuracy    <       0.00051665 Ry

     iteration #  2     ecut=    45.66 Ry     beta= 0.70
     Davidson diagonalization with overlap
     ethr =  6.46E-06,  avg # of iterations =  2.0

     negative rho (up, down):  7.375E-04 0.000E+00

     total cpu time spent up to now is       62.0 secs

     total energy              =     -23.19794041 Ry
     estimated scf accuracy    <       0.00013574 Ry

     iteration #  3     ecut=    45.66 Ry     beta= 0.70
     Davidson diagonalization with overlap
     ethr =  1.70E-06,  avg # of iterations =  2.0

     negative rho (up, down):  7.385E-04 0.000E+00

     total cpu time spent up to now is       62.6 secs

     total energy              =     -23.19796302 Ry
     estimated scf accuracy    <       0.00000257 Ry

     iteration #  4     ecut=    45.66 Ry     beta= 0.70
     Davidson diagonalization with overlap
     ethr =  3.21E-08,  avg # of iterations =  2.0

     negative rho (up, down):  7.378E-04 0.000E+00

     total cpu time spent up to now is       63.1 secs

     End of self-consistent calculation

          k = 0.0000 0.0000 0.0000 ( 17517 PWs)   bands (ev):

   -17.0405  -9.5119  -9.4494  -9.1012

     highest occupied level (ev):    -9.1012

!    total energy              =     -23.19796335 Ry
     estimated scf accuracy    <       0.00000053 Ry

     convergence has been achieved in   4 iterations

     negative rho (up, down):  7.378E-04 0.000E+00

     Forces acting on atoms (cartesian axes, Ry/au):

     atom    1 type  1   force =    -0.06228567   -0.02242837    0.00900200
     atom    2 type  2   force =     0.03013091    0.04014410    0.03612845
     atom    3 type  2   force =     0.00782650   -0.00314621    0.00194343
     atom    4 type  2   force =     0.03095468   -0.02852767   -0.03562882
     atom    5 type  2   force =    -0.00662643    0.01395816   -0.01144506

     Total force =     0.108510     Total SCF correction =     0.000564

     Entering Dynamics:    iteration =    16
                           time      =   0.0155 pico-seconds


ATOMIC_POSITIONS (angstrom)
C             5.0062138256        5.0012092576        4.9998700917
H             5.5771943758        5.6834533771        5.6141851517
H             4.4789253958        4.2735759574        5.6269626784
H             5.6559022167        4.5008902829        4.2932666143
H             4.2139360875        5.5276712630        4.4671335009


     kinetic energy (Ekin) =           0.00685160 Ry
     temperature           =         180.29695984 K 
     Ekin + Etot (const)   =         -23.19111175 Ry

     Linear momentum :    0.0000000000    0.0000000000   -0.0000000000

     Writing config-only to output data dir ./pwscf.save/
     NEW-OLD atomic charge density approx. for the potential

     negative rho (up, down):  7.172E-04 0.000E+00

     total cpu time spent up to now is       64.2 secs

     Self-consistent Calculation

     iteration #  1     ecut=    45.66 Ry     beta= 0.70
     Davidson diagonalization with overlap
     ethr =  1.00E-06,  avg # of iterations =  5.0

     negative rho (up, down):  7.053E-04 0.000E+00

     total cpu time spent up to now is       64.8 secs

     total energy              =     -23.20106743 Ry
     estimated scf accuracy    <       0.00168499 Ry

     iteration #  2     ecut=    45.66 Ry     beta= 0.70
     Davidson diagonalization with overlap
     ethr =  2.11E-05,  avg # of iterations =  2.0

     negative rho (up, down):  7.164E-04 0.000E+00

     total cpu time spent up to now is       65.5 secs

     total energy              =     -23.20152349 Ry
     estimated scf accuracy    <       0.00054728 Ry

     iteration #  3     ecut=    45.66 Ry     beta= 0.70
     Davidson diagonalization with overlap
     ethr =  6.84E-06,  avg # of iterations =  2.0

     negative rho (up, down):  7.182E-04 0.000E+00

     total cpu time spent up to now is       66.1 secs

     total energy              =     -23.20161213 Ry
     estimated scf accuracy    <       0.00000737 Ry

     iteration #  4     ecut=    45.66 Ry     beta= 0.70
     Davidson diagonalization with overlap
     ethr =  9.22E-08,  avg # of iterations =  3.0

     negative rho (up, down):  7.172E-04 0.000E+00

     total cpu time spent up to now is       66.7 secs

     total energy              =     -23.20161442 Ry
     estimated scf accuracy    <       0.00000254 Ry

     iteration #  5     ecut=    45.66 Ry     beta= 0.70
     Davidson diagonalization with overlap
     ethr =  3.17E-08,  avg # of iterations =  2.0

     negative rho (up, down):  7.168E-04 0.000E+00

     total cpu time spent up to now is       67.2 secs

     End of self-consistent calculation

          k = 0.0000 0.0000 0.0000 ( 17517 PWs)   bands (ev):

   -16.9240  -9.4750  -9.3559  -9.0515

     highest occupied level (ev):    -9.0515

!    total energy              =     -23.20161450 Ry
     estimated scf accuracy    <       0.00000023 Ry

     convergence has been achieved in   5 iterations

     negative rho (up, down):  7.168E-04 0.000E+00

     Forces acting on atoms (cartesian axes, Ry/au):

     atom    1 type  1   force =    -0.02751975   -0.00896933    0.00338014
     atom    2 type  2   force =     0.00766084    0.01216985    0.01026398
     atom    3 type  2   force =     0.00971742   -0.00604610    0.00483814
     atom    4 type  2   force =     0.00893592   -0.00941051   -0.00978133
     atom    5 type  2   force =     0.00120558    0.01225610   -0.00870093

     Total force =     0.042511     Total SCF correction =     0.000273

     Entering Dynamics:    iteration =    17
                           time      =   0.0164 pico-seconds


ATOMIC_POSITIONS (angstrom)
C             5.0056624831        5.0005647042        5.0004122869
H             5.5870167970        5.7097764537        5.6345829443
H             4.4810039530        4.2700276857        5.6230154138
H             5.6698136238        4.4928002118        4.2658790417
H             4.1946933202        5.5206668177        4.4716099238


     kinetic energy (Ekin) =           0.01020551 Ry
     temperature           =         268.55373674 K 
     Ekin + Etot (const)   =         -23.19140899 Ry

     Linear momentum :   -0.0000000000    0.0000000000   -0.0000000000

     Writing config-only to output data dir ./pwscf.save/
     NEW-OLD atomic charge density approx. for the potential

     negative rho (up, down):  6.949E-04 0.000E+00

     total cpu time spent up to now is       68.3 secs

     Self-consistent Calculation

     iteration #  1     ecut=    45.66 Ry     beta= 0.70
     Davidson diagonalization with overlap
     ethr =  1.00E-06,  avg # of iterations =  6.0

     negative rho (up, down):  6.819E-04 0.000E+00

     total cpu time spent up to now is       68.9 secs

     total energy              =     -23.20001679 Ry
     estimated scf accuracy    <       0.00211465 Ry

     iteration #  2     ecut=    45.66 Ry     beta= 0.70
     Davidson diagonalization with overlap
     ethr =  2.64E-05,  avg # of iterations =  2.0

     negative rho (up, down):  6.949E-04 0.000E+00

     total cpu time spent up to now is       69.5 secs

     total energy              =     -23.20061731 Ry
     estimated scf accuracy    <       0.00078459 Ry

     iteration #  3     ecut=    45.66 Ry     beta= 0.70
     Davidson diagonalization with overlap
     ethr =  9.81E-06,  avg # of iterations =  2.0

     negative rho (up, down):  6.974E-04 0.000E+00

     total cpu time spent up to now is       70.2 secs

     total energy              =     -23.20073895 Ry
     estimated scf accuracy    <       0.00001089 Ry

     iteration #  4     ecut=    45.66 Ry     beta= 0.70
     Davidson diagonalization with overlap
     ethr =  1.36E-07,  avg # of iterations =  3.0

     negative rho (up, down):  6.959E-04 0.000E+00

     total cpu time spent up to now is       70.8 secs

     total energy              =     -23.20074330 Ry
     estimated scf accuracy    <       0.00000471 Ry

     iteration #  5     ecut=    45.66 Ry     beta= 0.70
     Davidson diagonalization with overlap
     ethr =  5.89E-08,  avg # of iterations =  2.0

     negative rho (up, down):  6.954E-04 0.000E+00

     total cpu time spent up to now is       71.3 secs

     End of self-consistent calculation

          k = 0.0000 0.0000 0.0000 ( 17517 PWs)   bands (ev):

   -16.7949  -9.4156  -9.2409  -9.0113

     highest occupied level (ev):    -9.0113

!    total energy              =     -23.20074344 Ry
     estimated scf accuracy    <       0.00000042 Ry

     convergence has been achieved in   5 iterations

     negative rho (up, down):  6.954E-04 0.000E+00

     Forces acting on atoms (cartesian axes, Ry/au):

     atom    1 type  1   force =     0.00423601    0.00553139   -0.00409336
     atom    2 type  2   force =    -0.01337000   -0.01525458   -0.01472962
     atom    3 type  2   force =     0.01103637   -0.00837050    0.00732699
     atom    4 type  2   force =    -0.01252889    0.00914314    0.01607429
     atom    5 type  2   force =     0.01062651    0.00895055   -0.00457830

     Total force =     0.040647     Total SCF correction =     0.000359

     Entering Dynamics:    iteration =    18
                           time      =   0.0174 pico-seconds


ATOMIC_POSITIONS (angstrom)
C             5.0051930454        5.0000271020        5.0008753355
H             5.5937588557        5.7325849725        5.6515871265
H             4.4856252194        4.2645509042        5.6207562423
H             5.6808384532        4.4868166629        4.2421948829
H             4.1778988330        5.5157245216        4.4750315355


     kinetic energy (Ekin) =           0.00945829 Ry
     temperature           =         248.89088123 K 
     Ekin + Etot (const)   =         -23.19128515 Ry

     Linear momentum :   -0.0000000000    0.0000000000   -0.0000000000

     Writing config-only to output data dir ./pwscf.save/
     NEW-OLD atomic charge density approx. for the potential

     negative rho (up, down):  6.768E-04 0.000E+00

     total cpu time spent up to now is       72.4 secs

     Self-consistent Calculation

     iteration #  1     ecut=    45.66 Ry     beta= 0.70
     Davidson diagonalization with overlap
     ethr =  1.00E-06,  avg # of iterations =  5.0

     negative rho (up, down):  6.672E-04 0.000E+00

     total cpu time spent up to now is       73.1 secs

     total energy              =     -23.19598438 Ry
     estimated scf accuracy    <       0.00133204 Ry

     iteration #  2     ecut=    45.66 Ry     beta= 0.70
     Davidson diagonalization with overlap
     ethr =  1.67E-05,  avg # of iterations =  2.0

     negative rho (up, down):  6.774E-04 0.000E+00

     total cpu time spent up to now is       73.7 secs

     total energy              =     -23.19635559 Ry
     estimated scf accuracy    <       0.00049048 Ry

     iteration #  3     ecut=    45.66 Ry     beta= 0.70
     Davidson diagonalization with overlap
     ethr =  6.13E-06,  avg # of iterations =  2.0

     negative rho (up, down):  6.793E-04 0.000E+00

     total cpu time spent up to now is       74.3 secs

     total energy              =     -23.19643170 Ry
     estimated scf accuracy    <       0.00000690 Ry

     iteration #  4     ecut=    45.66 Ry     beta= 0.70
     Davidson diagonalization with overlap
     ethr =  8.62E-08,  avg # of iterations =  3.0

     negative rho (up, down):  6.782E-04 0.000E+00

     total cpu time spent up to now is       74.9 secs

     total energy              =     -23.19643445 Ry
     estimated scf accuracy    <       0.00000305 Ry

     iteration #  5     ecut=    45.66 Ry     beta= 0.70
     Davidson diagonalization with overlap
     ethr =  3.82E-08,  avg # of iterations =  2.0

     negative rho (up, down):  6.778E-04 0.000E+00

     total cpu time spent up to now is       75.5 secs

     End of self-consistent calculation

          k = 0.0000 0.0000 0.0000 ( 17517 PWs)   bands (ev):

   -16.6915  -9.3554  -9.1498  -8.9818

     highest occupied level (ev):    -8.9818

!    total energy              =     -23.19643446 Ry
     estimated scf accuracy    <       0.00000035 Ry

     convergence has been achieved in   5 iterations

     negative rho (up, down):  6.778E-04 0.000E+00

     Forces acting on atoms (cartesian axes, Ry/au):

     atom    1 type  1   force =     0.02335790    0.01633755   -0.01068548
     atom    2 type  2   force =    -0.02734315   -0.03480713   -0.03227658
     atom    3 type  2   force =     0.01222096   -0.00911793    0.00849394
     atom    4 type  2   force =    -0.02741157    0.02229219    0.03488242
     atom    5 type  2   force =     0.01917585    0.00529532   -0.00041430

     Total force =     0.084222     Total SCF correction =     0.000325

     Entering Dynamics:    iteration =    19
                           time      =   0.0184 pico-seconds


ATOMIC_POSITIONS (angstrom)
C             5.0051752406        4.9998053920        5.0011317766
H             5.5942012274        5.7473741499        5.6611549890
H             4.4930621168        4.2569734105        5.6204540205
H             5.6855478323        4.4859690917        4.2265474128
H             4.1655223407        5.5120022333        4.4783576957


     kinetic energy (Ekin) =           0.00545677 Ry
     temperature           =         143.59273371 K 
     Ekin + Etot (const)   =         -23.19097769 Ry

     Linear momentum :   -0.0000000000    0.0000000000   -0.0000000000

     Writing config-only to output data dir ./pwscf.save/
     NEW-OLD atomic charge density approx. for the potential

     negative rho (up, down):  6.664E-04 0.000E+00

     total cpu time spent up to now is       76.5 secs

     Self-consistent Calculation

     iteration #  1     ecut=    45.66 Ry     beta= 0.70
     Davidson diagonalization with overlap
     ethr =  1.00E-06,  avg # of iterations =  4.0

     negative rho (up, down):  6.614E-04 0.000E+00

     total cpu time spent up to now is       77.2 secs

     total energy              =     -23.19275201 Ry
     estimated scf accuracy    <       0.00041609 Ry

     iteration #  2     ecut=    45.66 Ry     beta= 0.70
     Davidson diagonalization with overlap
     ethr =  5.20E-06,  avg # of iterations =  2.0

     negative rho (up, down):  6.667E-04 0.000E+00

     total cpu time spent up to now is       77.8 secs

     total energy              =     -23.19286565 Ry
     estimated scf accuracy    <       0.00013921 Ry

     iteration #  3     ecut=    45.66 Ry     beta= 0.70
     Davidson diagonalization with overlap
     ethr =  1.74E-06,  avg # of iterations =  2.0

     negative rho (up, down):  6.683E-04 0.000E+00

     total cpu time spent up to now is       78.4 secs

     total energy              =     -23.19288599 Ry
     estimated scf accuracy    <       0.00000271 Ry

     iteration #  4     ecut=    45.66 Ry     beta= 0.70
     Davidson diagonalization with overlap
     ethr =  3.38E-08,  avg # of iterations =  3.0

     negative rho (up, down):  6.675E-04 0.000E+00

     total cpu time spent up to now is       79.0 secs

     total energy              =     -23.19288695 Ry
     estimated scf accuracy    <       0.00000152 Ry

     iteration #  5     ecut=    45.66 Ry     beta= 0.70
     Davidson diagonalization with overlap
     ethr =  1.90E-08,  avg # of iterations =  2.0

     negative rho (up, down):  6.672E-04 0.000E+00

     total cpu time spent up to now is       79.6 secs

     End of self-consistent calculation

          k = 0.0000 0.0000 0.0000 ( 17517 PWs)   bands (ev):

   -16.6324  -9.3083  -9.1089  -8.9659

     highest occupied level (ev):    -8.9659

!    total energy              =     -23.19288698 Ry
     estimated scf accuracy    <       0.00000015 Ry

     convergence has been achieved in   5 iterations

     negative rho (up, down):  6.672E-04 0.000E+00

     Forces acting on atoms (cartesian axes, Ry/au):

     atom    1 type  1   force =     0.02931901    0.02133436   -0.01408820
     atom    2 type  2   force =    -0.03325818   -0.04466050   -0.04089840
     atom    3 type  2   force =     0.01335558   -0.00784284    0.00790461
     atom    4 type  2   force =    -0.03408156    0.02882756    0.04440482
     atom    5 type  2   force =     0.02466515    0.00234142    0.00267717

     Total force =     0.105709     Total SCF correction =     0.000212

     Entering Dynamics:    iteration =    20
                           time      =   0.0194 pico-seconds


ATOMIC_POSITIONS (angstrom)
C             5.0057243288        4.9999961891        5.0011158177
H             5.5869811260        5.7518738317        5.6613001194
H             4.5035760558        4.2475889769        5.6219729705
H             5.6824050363        4.4917632074        4.2211305318
H             4.1588285422        5.5088193932        4.4823006578


     kinetic energy (Ekin) =           0.00211477 Ry
     temperature           =          55.64939771 K 
     Ekin + Etot (const)   =         -23.19077221 Ry

     Linear momentum :   -0.0000000000    0.0000000000   -0.0000000000

     Writing config-only to output data dir ./pwscf.save/
     NEW-OLD atomic charge density approx. for the potential

     negative rho (up, down):  6.666E-04 0.000E+00

     total cpu time spent up to now is       80.6 secs

     Self-consistent Calculation

     iteration #  1     ecut=    45.66 Ry     beta= 0.70
     Davidson diagonalization with overlap
     ethr =  1.00E-06,  avg # of iterations =  4.0

     negative rho (up, down):  6.663E-04 0.000E+00

     total cpu time spent up to now is       81.3 secs

     total energy              =     -23.19313276 Ry
     estimated scf accuracy    <       0.00003751 Ry

     iteration #  2     ecut=    45.66 Ry     beta= 0.70
     Davidson diagonalization with overlap
     ethr =  4.69E-07,  avg # of iterations =  1.0

     negative rho (up, down):  6.666E-04 0.000E+00

     total cpu time spent up to now is       81.8 secs

     total energy              =     -23.19313413 Ry
     estimated scf accuracy    <       0.00000293 Ry

     iteration #  3     ecut=    45.66 Ry     beta= 0.70
     Davidson diagonalization with overlap
     ethr =  3.66E-08,  avg # of iterations =  1.0

     negative rho (up, down):  6.667E-04 0.000E+00

     total cpu time spent up to now is       82.4 secs

     End of self-consistent calculation

          k = 0.0000 0.0000 0.0000 ( 17517 PWs)   bands (ev):

   -16.6252  -9.2796  -9.1291  -8.9659

     highest occupied level (ev):    -8.9659

!    total energy              =     -23.19313427 Ry
     estimated scf accuracy    <       0.00000003 Ry

     convergence has been achieved in   3 iterations

     negative rho (up, down):  6.667E-04 0.000E+00

     Forces acting on atoms (cartesian axes, Ry/au):

     atom    1 type  1   force =     0.02412810    0.02003670   -0.01336342
     atom    2 type  2   force =    -0.03157547   -0.04492059   -0.04085840
     atom    3 type  2   force =     0.01425398   -0.00477077    0.00572622
     atom    4 type  2   force =    -0.03261192    0.02895223    0.04444261
     atom    5 type  2   force =     0.02580532    0.00070242    0.00405299

     Total force =     0.103271     Total SCF correction =     0.000099

     Entering Dynamics:    iteration =    21
                           time      =   0.0203 pico-seconds


ATOMIC_POSITIONS (angstrom)
C             5.0067399421        5.0005744027        5.0008414725
H             5.5724862360        5.7460240956        5.6520317340
H             4.5173740206        4.2371053883        5.6248112048
H             5.6717486612        4.5042277332        4.2259529459
H             4.1580801250        5.5057983869        4.4871774033


     kinetic energy (Ekin) =           0.00235240 Ry
     temperature           =          61.90253877 K 
     Ekin + Etot (const)   =         -23.19078186 Ry

     Linear momentum :    0.0000000000    0.0000000000   -0.0000000000

     Writing config-only to output data dir ./pwscf.save/
     NEW-OLD atomic charge density approx. for the potential

     negative rho (up, down):  6.783E-04 0.000E+00

     total cpu time spent up to now is       83.4 secs

     Self-consistent Calculation

     iteration #  1     ecut=    45.66 Ry     beta= 0.70
     Davidson diagonalization with overlap
     ethr =  1.00E-06,  avg # of iterations =  4.0

     negative rho (up, down):  6.819E-04 0.000E+00

     total cpu time spent up to now is       84.1 secs

     total energy              =     -23.19687445 Ry
     estimated scf accuracy    <       0.00039915 Ry

     iteration #  2     ecut=    45.66 Ry     beta= 0.70
     Davidson diagonalization with overlap
     ethr =  4.99E-06,  avg # of iterations =  2.0

     negative rho (up, down):  6.769E-04 0.000E+00

     total cpu time spent up to now is       84.7 secs

     total energy              =     -23.19697123 Ry
     estimated scf accuracy    <       0.00011846 Ry

     iteration #  3     ecut=    45.66 Ry     beta= 0.70
     Davidson diagonalization with overlap
[...]

     total energy              =     -23.20054713 Ry
     estimated scf accuracy    <       0.00144541 Ry

     iteration #  2     ecut=    45.66 Ry     beta= 0.70
     Davidson diagonalization with overlap
     ethr =  1.81E-05,  avg # of iterations =  2.0

     negative rho (up, down):  6.943E-04 0.000E+00

     total cpu time spent up to now is      178.2 secs

     total energy              =     -23.20093520 Ry
     estimated scf accuracy    <       0.00050438 Ry

     iteration #  3     ecut=    45.66 Ry     beta= 0.70
     Davidson diagonalization with overlap
     ethr =  6.30E-06,  avg # of iterations =  2.0

     negative rho (up, down):  6.918E-04 0.000E+00

     total cpu time spent up to now is      178.8 secs

     total energy              =     -23.20101511 Ry
     estimated scf accuracy    <       0.00000742 Ry

     iteration #  4     ecut=    45.66 Ry     beta= 0.70
     Davidson diagonalization with overlap
     ethr =  9.27E-08,  avg # of iterations =  3.0

     negative rho (up, down):  6.930E-04 0.000E+00

     total cpu time spent up to now is      179.4 secs

     total energy              =     -23.20101773 Ry
     estimated scf accuracy    <       0.00000328 Ry

     iteration #  5     ecut=    45.66 Ry     beta= 0.70
     Davidson diagonalization with overlap
     ethr =  4.11E-08,  avg # of iterations =  2.0

     negative rho (up, down):  6.934E-04 0.000E+00

     total cpu time spent up to now is      179.9 secs

     End of self-consistent calculation

          k = 0.0000 0.0000 0.0000 ( 17517 PWs)   bands (ev):

   -16.7684  -9.3824  -9.2906  -8.9695

     highest occupied level (ev):    -8.9695

!    total energy              =     -23.20101773 Ry
     estimated scf accuracy    <       0.00000039 Ry

     convergence has been achieved in   5 iterations

     negative rho (up, down):  6.934E-04 0.000E+00

     Forces acting on atoms (cartesian axes, Ry/au):

     atom    1 type  1   force =    -0.03460863   -0.01880241    0.00894419
     atom    2 type  2   force =    -0.00011519   -0.00732175   -0.00690460
     atom    3 type  2   force =     0.01546774    0.02016069   -0.01170074
     atom    4 type  2   force =    -0.00137686    0.00458103    0.00789106
     atom    5 type  2   force =     0.02063294    0.00138244    0.00177010

     Total force =     0.055055     Total SCF correction =     0.000352

     Entering Dynamics:    iteration =    46
                           time      =   0.0445 pico-seconds


ATOMIC_POSITIONS (angstrom)
C             5.0105595029        5.0049557642        4.9985076038
H             5.4366502592        5.7704880981        5.6097271402
H             4.7875286788        4.1001261041        5.6135768879
H             5.6218905897        4.7282400608        4.1640692383
H             4.0281068715        5.3420944635        4.6304096416


     kinetic energy (Ekin) =           0.00999842 Ry
     temperature           =         263.10432696 K 
     Ekin + Etot (const)   =         -23.19101931 Ry

     Linear momentum :    0.0000000000   -0.0000000000   -0.0000000000

     Writing config-only to output data dir ./pwscf.save/
     NEW-OLD atomic charge density approx. for the potential

     negative rho (up, down):  7.242E-04 0.000E+00

     total cpu time spent up to now is      181.1 secs

     Self-consistent Calculation

     iteration #  1     ecut=    45.66 Ry     beta= 0.70
     Davidson diagonalization with overlap
     ethr =  1.00E-06,  avg # of iterations =  5.0

     negative rho (up, down):  7.328E-04 0.000E+00

     total cpu time spent up to now is      181.8 secs

     total energy              =     -23.19908933 Ry
     estimated scf accuracy    <       0.00219414 Ry

     iteration #  2     ecut=    45.66 Ry     beta= 0.70
     Davidson diagonalization with overlap
     ethr =  2.74E-05,  avg # of iterations =  2.0

     negative rho (up, down):  7.187E-04 0.000E+00

     total cpu time spent up to now is      182.4 secs

     total energy              =     -23.19972496 Ry
     estimated scf accuracy    <       0.00080531 Ry

     iteration #  3     ecut=    45.66 Ry     beta= 0.70
     Davidson diagonalization with overlap
     ethr =  1.01E-05,  avg # of iterations =  2.0

     negative rho (up, down):  7.150E-04 0.000E+00

     total cpu time spent up to now is      183.1 secs

     total energy              =     -23.19984879 Ry
     estimated scf accuracy    <       0.00001174 Ry

     iteration #  4     ecut=    45.66 Ry     beta= 0.70
     Davidson diagonalization with overlap
     ethr =  1.47E-07,  avg # of iterations =  3.0

     negative rho (up, down):  7.168E-04 0.000E+00

     total cpu time spent up to now is      183.7 secs

     total energy              =     -23.19985363 Ry
     estimated scf accuracy    <       0.00000621 Ry

     iteration #  5     ecut=    45.66 Ry     beta= 0.70
     Davidson diagonalization with overlap
     ethr =  7.76E-08,  avg # of iterations =  2.0

     negative rho (up, down):  7.173E-04 0.000E+00

     total cpu time spent up to now is      184.3 secs

     End of self-consistent calculation

          k = 0.0000 0.0000 0.0000 ( 17517 PWs)   bands (ev):

   -16.9167  -9.5698  -9.3078  -8.9948

     highest occupied level (ev):    -8.9948

!    total energy              =     -23.19985371 Ry
     estimated scf accuracy    <       0.00000062 Ry

     convergence has been achieved in   5 iterations

     negative rho (up, down):  7.173E-04 0.000E+00

     Forces acting on atoms (cartesian axes, Ry/au):

     atom    1 type  1   force =    -0.06284967   -0.04067882    0.01615851
     atom    2 type  2   force =     0.01986771    0.02314051    0.01704655
     atom    3 type  2   force =     0.01299162    0.01749515   -0.00940769
     atom    4 type  2   force =     0.02298156   -0.00405358   -0.02156030
     atom    5 type  2   force =     0.00700877    0.00409674   -0.00223708

     Total force =     0.093437     Total SCF correction =     0.000440

     Entering Dynamics:    iteration =    47
                           time      =   0.0455 pico-seconds


ATOMIC_POSITIONS (angstrom)
C             5.0115619897        5.0055020571        4.9985348502
H             5.4161417612        5.7582938350        5.5993706382
H             4.8052454092        4.1030147159        5.6065611351
H             5.6023243891        4.7376028765        4.1735237840
H             4.0385195337        5.3355278508        4.6380026903


     kinetic energy (Ekin) =           0.00889523 Ry
     temperature           =         234.07434963 K 
     Ekin + Etot (const)   =         -23.19095847 Ry

     Linear momentum :   -0.0000000000   -0.0000000000   -0.0000000000

     Writing config-only to output data dir ./pwscf.save/
     NEW-OLD atomic charge density approx. for the potential

     negative rho (up, down):  7.453E-04 0.000E+00

     total cpu time spent up to now is      185.4 secs

     Self-consistent Calculation

     iteration #  1     ecut=    45.66 Ry     beta= 0.70
     Davidson diagonalization with overlap
     ethr =  1.00E-06,  avg # of iterations =  5.0

     negative rho (up, down):  7.544E-04 0.000E+00

     total cpu time spent up to now is      186.0 secs

     total energy              =     -23.19501861 Ry
     estimated scf accuracy    <       0.00168839 Ry

     iteration #  2     ecut=    45.66 Ry     beta= 0.70
     Davidson diagonalization with overlap
     ethr =  2.11E-05,  avg # of iterations =  2.0

     negative rho (up, down):  7.418E-04 0.000E+00

     total cpu time spent up to now is      186.6 secs

     total energy              =     -23.19552491 Ry
     estimated scf accuracy    <       0.00061159 Ry

     iteration #  3     ecut=    45.66 Ry     beta= 0.70
     Davidson diagonalization with overlap
     ethr =  7.64E-06,  avg # of iterations =  2.0

     negative rho (up, down):  7.381E-04 0.000E+00

     total cpu time spent up to now is      187.2 secs

     total energy              =     -23.19561731 Ry
     estimated scf accuracy    <       0.00000924 Ry

     iteration #  4     ecut=    45.66 Ry     beta= 0.70
     Davidson diagonalization with overlap
     ethr =  1.15E-07,  avg # of iterations =  3.0

     negative rho (up, down):  7.399E-04 0.000E+00

     total cpu time spent up to now is      187.9 secs

     total energy              =     -23.19562128 Ry
     estimated scf accuracy    <       0.00000525 Ry

     iteration #  5     ecut=    45.66 Ry     beta= 0.70
     Davidson diagonalization with overlap
     ethr =  6.56E-08,  avg # of iterations =  2.0

     negative rho (up, down):  7.406E-04 0.000E+00

     total cpu time spent up to now is      188.4 secs

     End of self-consistent calculation

          k = 0.0000 0.0000 0.0000 ( 17517 PWs)   bands (ev):

   -17.0499  -9.7103  -9.3119  -9.0539

     highest occupied level (ev):    -9.0539

!    total energy              =     -23.19562115 Ry
     estimated scf accuracy    <       0.00000071 Ry

     convergence has been achieved in   5 iterations

     negative rho (up, down):  7.406E-04 0.000E+00

     Forces acting on atoms (cartesian axes, Ry/au):

     atom    1 type  1   force =    -0.07926661   -0.05535293    0.01977138
     atom    2 type  2   force =     0.03634712    0.04938533    0.03746141
     atom    3 type  2   force =     0.00906907    0.00945649   -0.00363759
     atom    4 type  2   force =     0.04317823   -0.01080133   -0.04665705
     atom    5 type  2   force =    -0.00932781    0.00731244   -0.00693814

     Total force =     0.139402     Total SCF correction =     0.000488

     Entering Dynamics:    iteration =    48
                           time      =   0.0464 pico-seconds


ATOMIC_POSITIONS (angstrom)
C             5.0110318295        5.0049780822        4.9989443831
H             5.4040074095        5.7574776370        5.5976450069
H             4.8250515964        4.1080820435        5.5987073046
H             5.5927061771        4.7444771341        4.1722288416
H             4.0467831268        5.3306459777        4.6439972348


     kinetic energy (Ekin) =           0.00504900 Ry
     temperature           =         132.86244366 K 
     Ekin + Etot (const)   =         -23.19057215 Ry

     Linear momentum :   -0.0000000000   -0.0000000000   -0.0000000000

     Writing config-only to output data dir ./pwscf.save/
     NEW-OLD atomic charge density approx. for the potential

     negative rho (up, down):  7.543E-04 0.000E+00

     total cpu time spent up to now is      189.5 secs

     Self-consistent Calculation

     iteration #  1     ecut=    45.66 Ry     beta= 0.70
     Davidson diagonalization with overlap
     ethr =  1.00E-06,  avg # of iterations =  4.0

     negative rho (up, down):  7.591E-04 0.000E+00

     total cpu time spent up to now is      190.2 secs

     total energy              =     -23.19347239 Ry
     estimated scf accuracy    <       0.00045918 Ry

     iteration #  2     ecut=    45.66 Ry     beta= 0.70
     Davidson diagonalization with overlap
     ethr =  5.74E-06,  avg # of iterations =  2.0

     negative rho (up, down):  7.533E-04 0.000E+00

     total cpu time spent up to now is      190.8 secs

     total energy              =     -23.19359873 Ry
     estimated scf accuracy    <       0.00013295 Ry

     iteration #  3     ecut=    45.66 Ry     beta= 0.70
     Davidson diagonalization with overlap
     ethr =  1.66E-06,  avg # of iterations =  2.0

     negative rho (up, down):  7.512E-04 0.000E+00

     total cpu time spent up to now is      191.4 secs

     total energy              =     -23.19361871 Ry
     estimated scf accuracy    <       0.00000259 Ry

     iteration #  4     ecut=    45.66 Ry     beta= 0.70
     Davidson diagonalization with overlap
     ethr =  3.23E-08,  avg # of iterations =  2.0

     negative rho (up, down):  7.521E-04 0.000E+00

     total cpu time spent up to now is      192.1 secs

     total energy              =     -23.19361942 Ry
     estimated scf accuracy    <       0.00000114 Ry

     iteration #  5     ecut=    45.66 Ry     beta= 0.70
     Davidson diagonalization with overlap
     ethr =  1.43E-08,  avg # of iterations =  1.0

     negative rho (up, down):  7.524E-04 0.000E+00

     total cpu time spent up to now is      192.6 secs

     End of self-consistent calculation

          k = 0.0000 0.0000 0.0000 ( 17517 PWs)   bands (ev):

   -17.1164  -9.7534  -9.2880  -9.1351

     highest occupied level (ev):    -9.1351

!    total energy              =     -23.19361942 Ry
     estimated scf accuracy    <       0.00000013 Ry

     convergence has been achieved in   5 iterations

     negative rho (up, down):  7.524E-04 0.000E+00

     Forces acting on atoms (cartesian axes, Ry/au):

     atom    1 type  1   force =    -0.07215290   -0.05271259    0.01765446
     atom    2 type  2   force =     0.04180172    0.05688370    0.04258750
     atom    3 type  2   force =     0.00444033   -0.00263613    0.00464091
     atom    4 type  2   force =     0.04988716   -0.01142095   -0.05399837
     atom    5 type  2   force =    -0.02397631    0.00988598   -0.01088451

     Total force =     0.146518     Total SCF correction =     0.000208

     Entering Dynamics:    iteration =    49
                           time      =   0.0474 pico-seconds


ATOMIC_POSITIONS (angstrom)
C             5.0091065683        5.0034348914        4.9996952710
H             5.4015039087        5.7697670809        5.6057312658
H             4.8458808070        4.1125420227        5.5919227111
H             5.5945816493        4.7487200779        4.1584930180
H             4.0495227309        5.3280417708        4.6474840570


     kinetic energy (Ekin) =           0.00323773 Ry
     temperature           =          85.19947384 K 
     Ekin + Etot (const)   =         -23.19038169 Ry

     Linear momentum :   -0.0000000000   -0.0000000000    0.0000000000

     Writing config-only to output data dir ./pwscf.save/
     NEW-OLD atomic charge density approx. for the potential

     negative rho (up, down):  7.481E-04 0.000E+00

     total cpu time spent up to now is      193.8 secs

     Self-consistent Calculation

     iteration #  1     ecut=    45.66 Ry     beta= 0.70
     Davidson diagonalization with overlap
     ethr =  1.00E-06,  avg # of iterations =  4.0

     negative rho (up, down):  7.454E-04 0.000E+00

     total cpu time spent up to now is      194.4 secs

     total energy              =     -23.19635485 Ry
     estimated scf accuracy    <       0.00025410 Ry

     iteration #  2     ecut=    45.66 Ry     beta= 0.70
     Davidson diagonalization with overlap
     ethr =  3.18E-06,  avg # of iterations =  2.0

     negative rho (up, down):  7.476E-04 0.000E+00

     total cpu time spent up to now is      195.0 secs

     total energy              =     -23.19638047 Ry
     estimated scf accuracy    <       0.00002547 Ry

     iteration #  3     ecut=    45.66 Ry     beta= 0.70
     Davidson diagonalization with overlap
     ethr =  3.18E-07,  avg # of iterations =  2.0

     negative rho (up, down):  7.474E-04 0.000E+00

     total cpu time spent up to now is      195.6 secs

     total energy              =     -23.19638469 Ry
     estimated scf accuracy    <       0.00000250 Ry

     iteration #  4     ecut=    45.66 Ry     beta= 0.70
     Davidson diagonalization with overlap
     ethr =  3.12E-08,  avg # of iterations =  2.0

     negative rho (up, down):  7.475E-04 0.000E+00

     total cpu time spent up to now is      196.2 secs

     End of self-consistent calculation

          k = 0.0000 0.0000 0.0000 ( 17517 PWs)   bands (ev):

   -17.0958  -9.6875  -9.2576  -9.1977

     highest occupied level (ev):    -9.1977

!    total energy              =     -23.19638500 Ry
     estimated scf accuracy    <       0.00000005 Ry

     convergence has been achieved in   4 iterations

     negative rho (up, down):  7.475E-04 0.000E+00

     Forces acting on atoms (cartesian axes, Ry/au):

     atom    1 type  1   force =    -0.04255514   -0.03025285    0.00901799
     atom    2 type  2   force =     0.03411135    0.04058890    0.02870081
     atom    3 type  2   force =     0.00013360   -0.01555264    0.01324307
     atom    4 type  2   force =     0.03998056   -0.00511554   -0.03865848
     atom    5 type  2   force =    -0.03167037    0.01033214   -0.01230339

     Total force =     0.106018     Total SCF correction =     0.000269

     Entering Dynamics:    iteration =    50
                           time      =   0.0484 pico-seconds


ATOMIC_POSITIONS (angstrom)
C             5.0063584889        5.0013067513        5.0006205248
H             5.4068594462        5.7914079491        5.6204300090
H             4.8667407973        4.1134187716        5.5881892376
H             5.6056683885        4.7517844336        4.1358505255
H             4.0449656834        5.3278180229        4.6481362560


     kinetic energy (Ekin) =           0.00572430 Ry
     temperature           =         150.63255437 K 
     Ekin + Etot (const)   =         -23.19066070 Ry

     Linear momentum :   -0.0000000000    0.0000000000    0.0000000000

     The maximum number of steps has been reached.

     End of molecular dynamics calculation

     diffusion coefficients :
     atom     1   D =       0.00000001 cm^2/s
     atom     2   D =       0.00002612 cm^2/s
     atom     3   D =       0.00010812 cm^2/s
     atom     4   D =       0.00006920 cm^2/s
     atom     5   D =       0.00009435 cm^2/s

     < D > =       0.00005956 cm^2/s

     Writing all to output data dir ./pwscf.save/

     init_run     :      0.68s CPU      0.77s WALL (       1 calls)
     electrons    :    125.39s CPU    142.87s WALL (      50 calls)
     update_pot   :     17.57s CPU     19.09s WALL (      49 calls)
     forces       :     23.71s CPU     26.48s WALL (      50 calls)

     Called by init_run:
     wfcinit      :      0.04s CPU      0.04s WALL (       1 calls)
     potinit      :      0.33s CPU      0.38s WALL (       1 calls)
     hinit0       :      0.19s CPU      0.20s WALL (       1 calls)

     Called by electrons:
     c_bands      :     11.35s CPU     11.74s WALL (     234 calls)
     sum_band     :     22.93s CPU     27.43s WALL (     234 calls)
     v_of_rho     :     69.74s CPU     76.51s WALL (     284 calls)
     newd         :     18.29s CPU     24.54s WALL (     284 calls)
     PAW_pot      :      4.38s CPU      4.64s WALL (     333 calls)
     mix_rho      :      8.06s CPU      8.80s WALL (     234 calls)

     Called by c_bands:
     init_us_2    :      0.61s CPU      0.61s WALL (     518 calls)
     init_us_2:cp :      0.61s CPU      0.61s WALL (     518 calls)
     regterg      :     10.84s CPU     11.19s WALL (     234 calls)

     Called by *egterg:
     rdiaghg      :      0.02s CPU      0.02s WALL (     804 calls)
     h_psi        :     10.12s CPU     10.24s WALL (     854 calls)
     s_psi        :      0.09s CPU      0.08s WALL (     854 calls)
     g_psi        :      0.05s CPU      0.05s WALL (     619 calls)

     Called by h_psi:
     h_psi:calbec :      0.33s CPU      0.38s WALL (     854 calls)
     vloc_psi     :      9.66s CPU      9.74s WALL (     854 calls)
     add_vuspsi   :      0.10s CPU      0.09s WALL (     854 calls)

     General routines
     calbec       :      0.50s CPU      0.56s WALL (    1337 calls)
     fft          :     51.45s CPU     51.79s WALL (    3523 calls)
     ffts         :      2.12s CPU      2.13s WALL (     518 calls)
     fftw         :      9.68s CPU      9.75s WALL (    3718 calls)
     interpolate  :      6.03s CPU      6.70s WALL (     284 calls)

     Parallel routines

     PWSCF        :   2m53.42s CPU   3m16.76s WALL


   This run was terminated on:  17: 4:35  29Dec2024            

=------------------------------------------------------------------------------=
   JOB DONE.
=------------------------------------------------------------------------------=
