
     Program PWSCF v.7.1 starts on 30Dec2024 at 19:37:31 

     This program is part of the open-source Quantum ESPRESSO suite
     for quantum simulation of materials; please cite
         "P. Giannozzi et al., J. Phys.:Condens. Matter 21 395502 (2009);
         "P. Giannozzi et al., J. Phys.:Condens. Matter 29 465901 (2017);
         "P. Giannozzi et al., J. Chem. Phys. 152 154105 (2020);
          URL http://www.quantum-espresso.org", 
     in publications or presentations arising from this work. More details at
     http://www.quantum-espresso.org/quote

     Parallel version (MPI), running on     1 processors

     MPI processes distributed on     1 nodes
     0 MiB available memory on the printing compute node when the environment starts

     Waiting for input...
     Reading input from standard input

     Current dimensions of program PWSCF are:
     Max number of different atomic species (ntypx) = 10
     Max number of k-points (npk) =  40000
     Max angular momentum in pseudopotentials (lmaxx) =  4
     Message from routine iosys:
     BEWARE:  force calculation with tetrahedra (not recommanded)
     Message from routine iosys:
     BEWARE: stress calculation with tetrahedra (not recommanded)
     file Fe.pbe-spn-kjpaw_psl.1.0.0.UPF: wavefunction(s)  3P 3D renormalized
     file Se.pbe-dn-kjpaw_psl.1.0.0.UPF: wavefunction(s)  4S 4P 3D renormalized
     Message from routine setup:
     using ibrav=0 with symmetry is DISCOURAGED, use correct ibrav instead

     Subspace diagonalization in iterative solution of the eigenvalue problem:
     a serial algorithm will be used


     G-vector sticks info
     --------------------
     sticks:   dense  smooth     PW     G-vecs:    dense   smooth      PW
     Sum         633     633    193                11981    11981    2103

     Using Slab Decomposition



     bravais-lattice index     =            0
     lattice parameter (alat)  =       5.7523  a.u.
     unit-cell volume          =     190.3406 (a.u.)^3
     number of atoms/cell      =            2
     number of atomic types    =            2
     number of electrons       =        32.00
     number of Kohn-Sham states=           20
     kinetic-energy cutoff     =      60.0000  Ry
     charge density cutoff     =     240.0000  Ry
     scf convergence threshold =      1.0E-05
     mixing beta               =       0.7000
     number of iterations used =            8  plain     mixing
     Exchange-correlation= SLA  PW   PBX  PBC
                           (   1   4   3   4   0   0   0)

     celldm(1)=   5.752330  celldm(2)=   0.000000  celldm(3)=   0.000000
     celldm(4)=   0.000000  celldm(5)=   0.000000  celldm(6)=   0.000000

     crystal axes: (cart. coord. in units of alat)
               a(1) = (   1.000000   0.000000   0.000000 )  
               a(2) = (  -0.000000   1.000000   0.000000 )  
               a(3) = (   0.000000   0.000000   1.000000 )  

     reciprocal axes: (cart. coord. in units 2 pi/alat)
               b(1) = (  1.000000  0.000000 -0.000000 )  
               b(2) = (  0.000000  1.000000  0.000000 )  
               b(3) = (  0.000000 -0.000000  1.000000 )  


     PseudoPot. # 1 for Fe read from file:
     ./pseudo/Fe.pbe-spn-kjpaw_psl.1.0.0.UPF
     MD5 check sum: fc81f059e5c5069939230b1155715ae8
     Pseudo is Projector augmented-wave + core cor, Zval = 16.0
     Generated using &quot;atomic&quot; code by A. Dal Corso  v.6.3
     Shape of augmentation charge: PSQ
     Using radial grid of 1191 points,  6 beta functions with: 
                l(1) =   0
                l(2) =   0
                l(3) =   1
                l(4) =   1
                l(5) =   2
                l(6) =   2
     Q(r) pseudized with 0 coefficients 


     PseudoPot. # 2 for Se read from file:
     ./pseudo/Se.pbe-dn-kjpaw_psl.1.0.0.UPF
     MD5 check sum: ac240dd2bae32a30e0bf3a38df9c8785
     Pseudo is Projector augmented-wave + core cor, Zval = 16.0
     Generated using &quot;atomic&quot; code by A. Dal Corso  v.6.3
     Shape of augmentation charge: PSQ
     Using radial grid of 1211 points,  6 beta functions with: 
                l(1) =   0
                l(2) =   0
                l(3) =   1
                l(4) =   1
                l(5) =   2
                l(6) =   2
     Q(r) pseudized with 0 coefficients 


     atomic species   valence    mass     pseudopotential
        Fe            16.00    55.84500     Fe( 1.00)
        Se            16.00    78.96000     Se( 1.00)

     48 Sym. Ops., with inversion, found



   Cartesian axes

     site n.     atom                  positions (alat units)
         1           Fe  tau(   1) = (   0.0000000   0.0000000   0.0000000  )
         2           Se  tau(   2) = (   0.5000000   0.5000000   0.5000000  )

     number of k points=    10 (tetrahedron method)
                       cart. coord. in units 2pi/alat
        k(    1) = (   0.0000000   0.0000000   0.0000000), wk =   0.0312500
        k(    2) = (   0.0000000   0.0000000   0.2500000), wk =   0.1875000
        k(    3) = (   0.0000000   0.0000000  -0.5000000), wk =   0.0937500
        k(    4) = (   0.0000000   0.2500000   0.2500000), wk =   0.3750000
        k(    5) = (   0.0000000   0.2500000  -0.5000000), wk =   0.3750000
        k(    6) = (   0.0000000  -0.5000000  -0.5000000), wk =   0.0937500
        k(    7) = (   0.2500000   0.2500000   0.2500000), wk =   0.2500000
        k(    8) = (   0.2500000   0.2500000  -0.5000000), wk =   0.3750000
        k(    9) = (   0.2500000  -0.5000000  -0.5000000), wk =   0.1875000
        k(   10) = (  -0.5000000  -0.5000000  -0.5000000), wk =   0.0312500

     Dense  grid:    11981 G-vectors     FFT dimensions: (  30,  30,  30)

     Estimated max dynamical RAM per process >      52.27 MB

     Check: negative core charge=   -0.000008

     Initial potential from superposition of free atoms

     starting charge      31.9995, renormalised to      32.0000
     Starting wfcs are   19 randomized atomic wfcs +    1 random wfcs
     Checking if some PAW data can be deallocated... 

     total cpu time spent up to now is        0.8 secs

     Self-consistent Calculation

     iteration #  1     ecut=    60.00 Ry     beta= 0.70
     Davidson diagonalization with overlap
     ethr =  1.00E-02,  avg # of iterations =  3.2

     total cpu time spent up to now is        1.2 secs

     total energy              =    -730.52675110 Ry
     estimated scf accuracy    <       0.64545341 Ry

     iteration #  2     ecut=    60.00 Ry     beta= 0.70
     Davidson diagonalization with overlap
     ethr =  2.02E-03,  avg # of iterations =  4.2

     total cpu time spent up to now is        1.7 secs

     total energy              =    -729.90011309 Ry
     estimated scf accuracy    <      11.44103658 Ry

     iteration #  3     ecut=    60.00 Ry     beta= 0.70
     Davidson diagonalization with overlap
     ethr =  2.02E-03,  avg # of iterations =  4.1

     total cpu time spent up to now is        2.2 secs

     total energy              =    -731.00848014 Ry
     estimated scf accuracy    <       0.01662581 Ry

     iteration #  4     ecut=    60.00 Ry     beta= 0.70
     Davidson diagonalization with overlap
     ethr =  5.20E-05,  avg # of iterations =  2.7

     total cpu time spent up to now is        2.6 secs

     total energy              =    -731.01044371 Ry
     estimated scf accuracy    <       0.00015573 Ry

     iteration #  5     ecut=    60.00 Ry     beta= 0.70
     Davidson diagonalization with overlap
     ethr =  4.87E-07,  avg # of iterations =  3.9

     total cpu time spent up to now is        3.1 secs

     total energy              =    -731.01044195 Ry
     estimated scf accuracy    <       0.00002445 Ry

     iteration #  6     ecut=    60.00 Ry     beta= 0.70
     Davidson diagonalization with overlap
     ethr =  7.64E-08,  avg # of iterations =  2.2

     total cpu time spent up to now is        3.5 secs

     End of self-consistent calculation

          k = 0.0000 0.0000 0.0000 (  1503 PWs)   bands (ev):

   -70.4044 -36.4986 -36.4986 -36.4986 -32.8914 -32.8914 -32.8800 -32.8800
   -32.8800  -0.5212  13.8478  13.8478  14.8603  14.8603  14.8603  15.7619
    15.7619  15.7619  19.3313  23.7304

          k = 0.0000 0.0000 0.2500 (  1482 PWs)   bands (ev):

   -70.4032 -36.5146 -36.4973 -36.4973 -32.8912 -32.8860 -32.8807 -32.8807
   -32.8795   0.2039  10.1609  13.9875  13.9875  14.1146  15.5050  15.8119
    17.3130  17.3130  21.1448  23.5172

          k = 0.0000 0.0000-0.5000 (  1510 PWs)   bands (ev):

   -70.4024 -36.5309 -36.4964 -36.4964 -32.8913 -32.8818 -32.8818 -32.8809
   -32.8794   1.2595   7.4283  13.5632  13.5632  14.4099  15.8626  16.3624
    18.8146  18.8146  22.0874  25.6414

          k = 0.0000 0.2500 0.2500 (  1492 PWs)   bands (ev):

   -70.4023 -36.5136 -36.5127 -36.4961 -32.8885 -32.8834 -32.8820 -32.8811
   -32.8805   0.8691  10.5140  11.0559  14.1577  14.5996  15.4495  16.0232
    16.1870  17.8365  22.2326  23.5683

          k = 0.0000 0.2500-0.5000 (  1498 PWs)   bands (ev):

   -70.4013 -36.5288 -36.5117 -36.4948 -32.8878 -32.8835 -32.8820 -32.8810
   -32.8788   1.8046   8.2860  11.6145  14.1645  14.4445  15.4753  16.3157
    16.5699  18.1853  20.0191  23.9013

          k = 0.0000-0.5000-0.5000 (  1492 PWs)   bands (ev):

   -70.4003 -36.5269 -36.5269 -36.4931 -32.8857 -32.8853 -32.8823 -32.8823
   -32.8754   2.5279   9.6297   9.6297  13.5822  15.1387  15.1387  15.9085
    16.3560  17.1549  18.2223  26.7442

          k = 0.2500 0.2500 0.2500 (  1499 PWs)   bands (ev):

   -70.4013 -36.5121 -36.5116 -36.5116 -32.8833 -32.8833 -32.8824 -32.8818
   -32.8818   1.5092  11.2289  11.2289  11.4514  15.0520  15.0520  15.8771
    16.9260  16.9260  21.9976  24.2642

          k = 0.2500 0.2500-0.5000 (  1488 PWs)   bands (ev):

   -70.4002 -36.5273 -36.5103 -36.5101 -32.8838 -32.8831 -32.8826 -32.8819
   -32.8779   2.4017   8.9308  11.3880  12.7915  14.9397  15.0367  15.4810
    16.4523  18.0604  20.6091  21.3104

          k = 0.2500-0.5000-0.5000 (  1496 PWs)   bands (ev):

   -70.3993 -36.5258 -36.5258 -36.5089 -32.8844 -32.8829 -32.8829 -32.8805
   -32.8755   3.2215   9.7546   9.7546  12.4411  14.6578  15.7621  15.7621
    16.3730  17.8628  18.2277  22.2025

          k =-0.5000-0.5000-0.5000 (  1472 PWs)   bands (ev):

   -70.3981 -36.5245 -36.5245 -36.5245 -32.8834 -32.8834 -32.8834 -32.8751
   -32.8751   4.2507   9.8704   9.8704   9.8704  16.3900  16.3900  17.9870
    17.9870  17.9870  18.0264  18.0264

     the Fermi energy is    16.3022 ev

!    total energy              =    -731.01048353 Ry
     total all-electron energy =     -7405.679989 Ry
     estimated scf accuracy    <       0.00000250 Ry

     The total energy is the sum of the following terms:
     one-electron contribution =    -285.86983045 Ry
     hartree contribution      =     158.72853783 Ry
     xc contribution           =     -56.25297051 Ry
     ewald contribution        =    -323.91874127 Ry
     one-center paw contrib.   =    -223.69747914 Ry

     convergence has been achieved in   6 iterations

     Forces acting on atoms (cartesian axes, Ry/au):

     atom    1 type  1   force =     0.00000000    0.00000000    0.00000000
     atom    2 type  2   force =     0.00000000    0.00000000    0.00000000

     Total force =     0.000000     Total SCF correction =     0.000000


     Computing stress (Cartesian axis) and pressure

          total   stress  (Ry/bohr**3)                   (kbar)     P=      -98.12
  -0.00066701   0.00000000   0.00000000          -98.12        0.00        0.00
   0.00000000  -0.00066701   0.00000000            0.00      -98.12        0.00
   0.00000000   0.00000000  -0.00066701            0.00        0.00      -98.12


     Writing all to output data dir ./work/calculation.save/

     init_run     :      0.58s CPU      0.61s WALL (       1 calls)
     electrons    :      2.57s CPU      2.75s WALL (       1 calls)
     forces       :      0.04s CPU      0.04s WALL (       1 calls)
     stress       :      0.21s CPU      0.22s WALL (       1 calls)

     Called by init_run:
     wfcinit      :      0.08s CPU      0.08s WALL (       1 calls)
     potinit      :      0.14s CPU      0.14s WALL (       1 calls)
     hinit0       :      0.35s CPU      0.35s WALL (       1 calls)

     Called by electrons:
     c_bands      :      1.35s CPU      1.45s WALL (       6 calls)
     sum_band     :      0.34s CPU      0.37s WALL (       6 calls)
     v_of_rho     :      0.04s CPU      0.05s WALL (       7 calls)
     newd         :      0.08s CPU      0.11s WALL (       7 calls)
     PAW_pot      :      0.89s CPU      0.91s WALL (       7 calls)
     mix_rho      :      0.00s CPU      0.01s WALL (       6 calls)

     Called by c_bands:
     init_us_2    :      0.03s CPU      0.04s WALL (     150 calls)
     init_us_2:cp :      0.03s CPU      0.04s WALL (     150 calls)
     cegterg      :      1.30s CPU      1.39s WALL (      60 calls)

     Called by *egterg:
     cdiaghg      :      0.07s CPU      0.08s WALL (     263 calls)
     h_psi        :      1.09s CPU      1.13s WALL (     273 calls)
     s_psi        :      0.03s CPU      0.04s WALL (     273 calls)
     g_psi        :      0.00s CPU      0.00s WALL (     203 calls)

     Called by h_psi:
     h_psi:calbec :      0.04s CPU      0.06s WALL (     273 calls)
     vloc_psi     :      1.01s CPU      1.01s WALL (     273 calls)
     add_vuspsi   :      0.04s CPU      0.05s WALL (     273 calls)

     General routines
     calbec       :      0.06s CPU      0.09s WALL (     383 calls)
     fft          :      0.03s CPU      0.03s WALL (     102 calls)
     ffts         :      0.00s CPU      0.00s WALL (       6 calls)
     fftw         :      1.08s CPU      1.09s WALL (    7876 calls)

     Parallel routines

     PWSCF        :      3.55s CPU      3.80s WALL


   This run was terminated on:  19:37:35  30Dec2024            

=------------------------------------------------------------------------------=
   JOB DONE.
=------------------------------------------------------------------------------=
