
     Program PWSCF v.7.1 starts on 30Dec2024 at 16:54:19 

     This program is part of the open-source Quantum ESPRESSO suite
     for quantum simulation of materials; please cite
         "P. Giannozzi et al., J. Phys.:Condens. Matter 21 395502 (2009);
         "P. Giannozzi et al., J. Phys.:Condens. Matter 29 465901 (2017);
         "P. Giannozzi et al., J. Chem. Phys. 152 154105 (2020);
          URL http://www.quantum-espresso.org", 
     in publications or presentations arising from this work. More details at
     http://www.quantum-espresso.org/quote

     Parallel version (MPI), running on     1 processors

     MPI processes distributed on     1 nodes
     0 MiB available memory on the printing compute node when the environment starts

     Waiting for input...
     Reading input from standard input
Warning: card &CELL ignored
Warning: card / ignored

     Current dimensions of program PWSCF are:
     Max number of different atomic species (ntypx) = 10
     Max number of k-points (npk) =  40000
     Max angular momentum in pseudopotentials (lmaxx) =  4
     Message from routine iosys:
     BEWARE:  force calculation with tetrahedra (not recommanded)
     Message from routine iosys:
     BEWARE: stress calculation with tetrahedra (not recommanded)

     File ./work/try_0/calculation_try_0.md deleted, as requested
     file Se.pbe-dn-kjpaw_psl.1.0.0.UPF: wavefunction(s)  4S 4P 3D renormalized
     file Fe.pbe-spn-kjpaw_psl.1.0.0.UPF: wavefunction(s)  3P 3D renormalized
     Message from routine setup:
     using ibrav=0 with symmetry is DISCOURAGED, use correct ibrav instead
     Message from routine setup:
     Dynamics, you should have no symmetries

     Subspace diagonalization in iterative solution of the eigenvalue problem:
     a serial algorithm will be used


     G-vector sticks info
     --------------------
     sticks:   dense  smooth     PW     G-vecs:    dense   smooth      PW
     Sum         845     845    253                18349    18349    3071

     Using Slab Decomposition



     bravais-lattice index     =            0
     lattice parameter (alat)  =       5.7523  a.u.
     unit-cell volume          =     190.3406 (a.u.)^3
     number of atoms/cell      =            2
     number of atomic types    =            2
     number of electrons       =        32.00
     number of Kohn-Sham states=           20
     kinetic-energy cutoff     =      80.0000  Ry
     charge density cutoff     =     320.0000  Ry
     scf convergence threshold =      1.0E-06
     mixing beta               =       0.7000
     number of iterations used =            8  plain     mixing
     energy convergence thresh.=      0.0E+00
     force convergence thresh. =      0.0E+00
     Exchange-correlation= SLA  PW   PBX  PBC
                           (   1   4   3   4   0   0   0)
     nstep                     =           50


     celldm(1)=   5.752330  celldm(2)=   0.000000  celldm(3)=   0.000000
     celldm(4)=   0.000000  celldm(5)=   0.000000  celldm(6)=   0.000000

     crystal axes: (cart. coord. in units of alat)
               a(1) = (   1.000000   0.000000   0.000000 )  
               a(2) = (  -0.000000   1.000000   0.000000 )  
               a(3) = (   0.000000   0.000000   1.000000 )  

     reciprocal axes: (cart. coord. in units 2 pi/alat)
               b(1) = (  1.000000  0.000000 -0.000000 )  
               b(2) = (  0.000000  1.000000  0.000000 )  
               b(3) = (  0.000000 -0.000000  1.000000 )  


     PseudoPot. # 1 for Se read from file:
     ./pseudo/Se.pbe-dn-kjpaw_psl.1.0.0.UPF
     MD5 check sum: ac240dd2bae32a30e0bf3a38df9c8785
     Pseudo is Projector augmented-wave + core cor, Zval = 16.0
     Generated using &quot;atomic&quot; code by A. Dal Corso  v.6.3
     Shape of augmentation charge: PSQ
     Using radial grid of 1211 points,  6 beta functions with: 
                l(1) =   0
                l(2) =   0
                l(3) =   1
                l(4) =   1
                l(5) =   2
                l(6) =   2
     Q(r) pseudized with 0 coefficients 


     PseudoPot. # 2 for Fe read from file:
     ./pseudo/Fe.pbe-spn-kjpaw_psl.1.0.0.UPF
     MD5 check sum: fc81f059e5c5069939230b1155715ae8
     Pseudo is Projector augmented-wave + core cor, Zval = 16.0
     Generated using &quot;atomic&quot; code by A. Dal Corso  v.6.3
     Shape of augmentation charge: PSQ
     Using radial grid of 1191 points,  6 beta functions with: 
                l(1) =   0
                l(2) =   0
                l(3) =   1
                l(4) =   1
                l(5) =   2
                l(6) =   2
     Q(r) pseudized with 0 coefficients 


     atomic species   valence    mass     pseudopotential
        Se            16.00    78.96000     Se( 1.00)
        Fe            16.00    55.84500     Fe( 1.00)

     48 Sym. Ops., with inversion, found



   Cartesian axes

     site n.     atom                  positions (alat units)
         1           Fe  tau(   1) = (   0.0000000   0.0000000   0.0000000  )
         2           Se  tau(   2) = (   0.5000000   0.5000000   0.5000000  )

     number of k points=    35 (tetrahedron method)
                       cart. coord. in units 2pi/alat
        k(    1) = (   0.0000000   0.0000000   0.0000000), wk =   0.0039062
        k(    2) = (   0.0000000   0.0000000   0.1250000), wk =   0.0234375
        k(    3) = (   0.0000000   0.0000000   0.2500000), wk =   0.0234375
        k(    4) = (   0.0000000   0.0000000   0.3750000), wk =   0.0234375
        k(    5) = (   0.0000000   0.0000000  -0.5000000), wk =   0.0117188
        k(    6) = (   0.0000000   0.1250000   0.1250000), wk =   0.0468750
        k(    7) = (   0.0000000   0.1250000   0.2500000), wk =   0.0937500
        k(    8) = (   0.0000000   0.1250000   0.3750000), wk =   0.0937500
        k(    9) = (   0.0000000   0.1250000  -0.5000000), wk =   0.0468750
        k(   10) = (   0.0000000   0.2500000   0.2500000), wk =   0.0468750
        k(   11) = (   0.0000000   0.2500000   0.3750000), wk =   0.0937500
        k(   12) = (   0.0000000   0.2500000  -0.5000000), wk =   0.0468750
        k(   13) = (   0.0000000   0.3750000   0.3750000), wk =   0.0468750
        k(   14) = (   0.0000000   0.3750000  -0.5000000), wk =   0.0468750
        k(   15) = (   0.0000000  -0.5000000  -0.5000000), wk =   0.0117188
        k(   16) = (   0.1250000   0.1250000   0.1250000), wk =   0.0312500
        k(   17) = (   0.1250000   0.1250000   0.2500000), wk =   0.0937500
        k(   18) = (   0.1250000   0.1250000   0.3750000), wk =   0.0937500
        k(   19) = (   0.1250000   0.1250000  -0.5000000), wk =   0.0468750
        k(   20) = (   0.1250000   0.2500000   0.2500000), wk =   0.0937500
        k(   21) = (   0.1250000   0.2500000   0.3750000), wk =   0.1875000
        k(   22) = (   0.1250000   0.2500000  -0.5000000), wk =   0.0937500
        k(   23) = (   0.1250000   0.3750000   0.3750000), wk =   0.0937500
        k(   24) = (   0.1250000   0.3750000  -0.5000000), wk =   0.0937500
        k(   25) = (   0.1250000  -0.5000000  -0.5000000), wk =   0.0234375
        k(   26) = (   0.2500000   0.2500000   0.2500000), wk =   0.0312500
        k(   27) = (   0.2500000   0.2500000   0.3750000), wk =   0.0937500
        k(   28) = (   0.2500000   0.2500000  -0.5000000), wk =   0.0468750
        k(   29) = (   0.2500000   0.3750000   0.3750000), wk =   0.0937500
        k(   30) = (   0.2500000   0.3750000  -0.5000000), wk =   0.0937500
        k(   31) = (   0.2500000  -0.5000000  -0.5000000), wk =   0.0234375
        k(   32) = (   0.3750000   0.3750000   0.3750000), wk =   0.0312500
        k(   33) = (   0.3750000   0.3750000  -0.5000000), wk =   0.0468750
        k(   34) = (   0.3750000  -0.5000000  -0.5000000), wk =   0.0234375
        k(   35) = (  -0.5000000  -0.5000000  -0.5000000), wk =   0.0039062

     Dense  grid:    18349 G-vectors     FFT dimensions: (  36,  36,  36)

     Estimated max dynamical RAM per process >      97.07 MB

     Check: negative core charge=   -0.000005

     Initial potential from superposition of free atoms

     starting charge      31.9995, renormalised to      32.0000
     Starting wfcs are   19 randomized atomic wfcs +    1 random wfcs
     Checking if some PAW data can be deallocated... 

     total cpu time spent up to now is        1.2 secs

     Self-consistent Calculation

     iteration #  1     ecut=    80.00 Ry     beta= 0.70
     Davidson diagonalization with overlap
     ethr =  1.00E-02,  avg # of iterations =  3.3

     total cpu time spent up to now is        2.9 secs

     total energy              =    -730.46471988 Ry
     estimated scf accuracy    <       0.72534710 Ry

     iteration #  2     ecut=    80.00 Ry     beta= 0.70
     Davidson diagonalization with overlap
     ethr =  2.27E-03,  avg # of iterations =  4.6

     total cpu time spent up to now is        4.9 secs

     total energy              =    -729.86041384 Ry
     estimated scf accuracy    <      12.41691834 Ry

     iteration #  3     ecut=    80.00 Ry     beta= 0.70
     Davidson diagonalization with overlap
     ethr =  2.27E-03,  avg # of iterations =  4.3

     total cpu time spent up to now is        6.9 secs

     total energy              =    -731.01260431 Ry
     estimated scf accuracy    <       0.07518767 Ry

     iteration #  4     ecut=    80.00 Ry     beta= 0.70
     Davidson diagonalization with overlap
     ethr =  2.35E-04,  avg # of iterations =  1.9

     total cpu time spent up to now is        8.4 secs

     total energy              =    -731.01897049 Ry
     estimated scf accuracy    <       0.00149735 Ry

     iteration #  5     ecut=    80.00 Ry     beta= 0.70
     Davidson diagonalization with overlap
     ethr =  4.68E-06,  avg # of iterations =  4.2

     total cpu time spent up to now is       10.2 secs

     total energy              =    -731.01941298 Ry
     estimated scf accuracy    <       0.00012606 Ry

     iteration #  6     ecut=    80.00 Ry     beta= 0.70
     Davidson diagonalization with overlap
     ethr =  3.94E-07,  avg # of iterations =  2.2

     total cpu time spent up to now is       11.7 secs

     total energy              =    -731.01945059 Ry
     estimated scf accuracy    <       0.00003027 Ry

     iteration #  7     ecut=    80.00 Ry     beta= 0.70
     Davidson diagonalization with overlap
     ethr =  9.46E-08,  avg # of iterations =  1.3

     total cpu time spent up to now is       13.0 secs

     End of self-consistent calculation

          k = 0.0000 0.0000 0.0000 (  2325 PWs)   bands (ev):

   -70.5317 -36.6264 -36.6264 -36.6264 -32.7932 -32.7932 -32.7818 -32.7818
   -32.7818  -0.4819  13.7616  13.7616  14.8991  14.8991  14.8991  15.6562
    15.6562  15.6562  19.3252  23.7084

          k = 0.0000 0.0000 0.1250 (  2317 PWs)   bands (ev):

   -70.5314 -36.6310 -36.6260 -36.6260 -32.7931 -32.7916 -32.7820 -32.7820
   -32.7818  -0.2891  12.4914  13.8355  14.4638  14.4638  14.9468  15.6705
    16.2678  16.2678  20.2225  23.6569

          k = 0.0000 0.0000 0.2500 (  2284 PWs)   bands (ev):

   -70.5306 -36.6421 -36.6251 -36.6251 -32.7929 -32.7878 -32.7826 -32.7826
   -32.7816   0.2459  10.1729  13.9623  13.9623  14.0223  15.4137  15.7053
    17.2753  17.2753  21.1362  23.5149

          k = 0.0000 0.0000 0.3750 (  2308 PWs)   bands (ev):

   -70.5299 -36.6535 -36.6245 -36.6245 -32.7929 -32.7840 -32.7833 -32.7833
   -32.7816   0.9379   8.2389  13.6390  13.6390  14.2220  15.7402  15.9829
    18.2900  18.2900  21.7501  23.3428

          k = 0.0000 0.0000-0.5000 (  2272 PWs)   bands (ev):

   -70.5296 -36.6581 -36.6239 -36.6239 -32.7927 -32.7835 -32.7835 -32.7824
   -32.7814   1.3080   7.4382  13.5283  13.5283  14.3097  15.7553  16.2464
    18.7911  18.7911  22.0869  23.2610

          k = 0.0000 0.1250 0.1250 (  2307 PWs)   bands (ev):

   -70.5311 -36.6308 -36.6304 -36.6256 -32.7923 -32.7908 -32.7823 -32.7821
   -32.7819  -0.0999  12.5653  12.5947  14.3135  14.3199  15.4958  15.5662
    16.0175  16.6840  21.1567  24.3016

          k = 0.0000 0.1250 0.2500 (  2293 PWs)   bands (ev):

   -70.5303 -36.6418 -36.6297 -36.6247 -32.7919 -32.7873 -32.7831 -32.7827
   -32.7819   0.4239  10.3311  12.7835  14.0211  14.3633  15.5542  15.6292
    16.5639  17.4620  22.0245  24.5617

          k = 0.0000 0.1250 0.3750 (  2299 PWs)   bands (ev):

   -70.5296 -36.6530 -36.6289 -36.6240 -32.7917 -32.7838 -32.7836 -32.7834
   -32.7820   1.0979   8.4445  12.9456  13.7743  14.3543  15.6087  16.0100
    17.2533  18.2548  22.4801  23.5552

          k = 0.0000 0.1250-0.5000 (  2314 PWs)   bands (ev):

   -70.5294 -36.6578 -36.6286 -36.6237 -32.7917 -32.7842 -32.7837 -32.7821
   -32.7820   1.4554   7.6641  12.9960  13.6829  14.3575  15.6372  16.2329
    17.6168  18.6329  22.4441  22.9215

          k = 0.0000 0.2500 0.2500 (  2286 PWs)   bands (ev):

   -70.5296 -36.6411 -36.6404 -36.6237 -32.7902 -32.7850 -32.7840 -32.7829
   -32.7826   0.9135  10.5239  11.0698  14.1234  14.5049  15.3491  15.9260
    16.0995  17.8087  22.2290  23.5496

          k = 0.0000 0.2500 0.3750 (  2287 PWs)   bands (ev):

   -70.5289 -36.6517 -36.6397 -36.6228 -32.7896 -32.7850 -32.7835 -32.7828
   -32.7819   1.5330   9.0111  11.3758  14.1379  14.4364  15.3319  16.0663
    16.3345  18.0821  20.7402  23.6657

          k = 0.0000 0.2500-0.5000 (  2300 PWs)   bands (ev):

   -70.5286 -36.6564 -36.6393 -36.6225 -32.7895 -32.7855 -32.7839 -32.7829
   -32.7805   1.8543   8.2992  11.6266  14.1160  14.3527  15.3746  16.1990
    16.4912  18.1828  19.9890  23.9058

          k = 0.0000 0.3750 0.3750 (  2304 PWs)   bands (ev):

   -70.5282 -36.6508 -36.6505 -36.6218 -32.7884 -32.7864 -32.7838 -32.7836
   -32.7794   2.0701   9.5970  10.0203  14.1974  14.5549  15.1324  16.0258
    16.1499  17.7633  19.1017  24.6367

          k = 0.0000 0.3750-0.5000 (  2290 PWs)   bands (ev):

   -70.5279 -36.6550 -36.6500 -36.6213 -32.7880 -32.7868 -32.7840 -32.7837
   -32.7781   2.3400   9.1571  10.2381  13.9389  14.6999  15.1361  15.9685
    16.2023  17.5684  18.5495  25.2727

          k = 0.0000-0.5000-0.5000 (  2296 PWs)   bands (ev):

   -70.5276 -36.6546 -36.6546 -36.6207 -32.7876 -32.7875 -32.7841 -32.7841
   -32.7770   2.5800   9.6541   9.6541  13.5170  15.0431  15.0431  15.8157
    16.2328  17.2083  18.1483  26.7574

          k = 0.1250 0.1250 0.1250 (  2310 PWs)   bands (ev):

   -70.5308 -36.6305 -36.6301 -36.6301 -32.7907 -32.7907 -32.7824 -32.7824
   -32.7823   0.0862  12.6397  12.6397  12.7824  14.9613  14.9613  16.1871
    16.2622  16.2622  22.2166  25.0804

          k = 0.1250 0.1250 0.2500 (  2300 PWs)   bands (ev):

   -70.5301 -36.6414 -36.6294 -36.6293 -32.7906 -32.7870 -32.7832 -32.7830
   -32.7823   0.6003  10.4936  12.7315  13.0952  14.6011  15.2878  15.8907
    16.5323  17.1005  23.0042  25.1807

          k = 0.1250 0.1250 0.3750 (  2292 PWs)   bands (ev):

   -70.5293 -36.6525 -36.6286 -36.6283 -32.7905 -32.7840 -32.7836 -32.7832
   -32.7823   1.2589   8.6431  12.7900  13.4336  14.4560  15.4359  16.0477
    16.7744  17.9202  22.7238  24.4202

          k = 0.1250 0.1250-0.5000 (  2300 PWs)   bands (ev):

   -70.5290 -36.6572 -36.6283 -36.6279 -32.7905 -32.7844 -32.7839 -32.7823
   -32.7817   1.6061   7.8788  12.8022  13.5496  14.4326  15.4857  16.2494
    16.8572  18.3248  22.2216  23.6308

          k = 0.1250 0.2500 0.2500 (  2295 PWs)   bands (ev):

   -70.5293 -36.6406 -36.6401 -36.6284 -32.7887 -32.7850 -32.7841 -32.7832
   -32.7830   1.0851  10.7467  11.1197  13.1948  14.6701  15.1606  16.0394
    16.2406  17.3313  22.4304  24.6033

          k = 0.1250 0.2500 0.3750 (  2301 PWs)   bands (ev):

   -70.5286 -36.6514 -36.6393 -36.6274 -32.7882 -32.7851 -32.7839 -32.7831
   -32.7818   1.6976   9.1853  11.4346  13.5615  14.5643  15.2105  15.9126
    16.2581  17.7898  20.9012  24.0967

          k = 0.1250 0.2500-0.5000 (  2286 PWs)   bands (ev):

   -70.5283 -36.6559 -36.6389 -36.6269 -32.7880 -32.7855 -32.7841 -32.7831
   -32.7803   2.0147   8.4755  11.6361  13.8053  14.4914  15.2247  15.8477
    16.2550  18.0758  20.2090  23.8084

          k = 0.1250 0.3750 0.3750 (  2310 PWs)   bands (ev):

   -70.5279 -36.6505 -36.6502 -36.6264 -32.7868 -32.7863 -32.7841 -32.7839
   -32.7794   2.2409   9.7470  10.0606  13.9071  14.4476  15.1941  15.5396
    16.2313  17.7148  19.2747  24.2732

          k = 0.1250 0.3750-0.5000 (  2300 PWs)   bands (ev):

   -70.5276 -36.6547 -36.6498 -36.6259 -32.7867 -32.7864 -32.7843 -32.7841
   -32.7781   2.5150   9.2579  10.2752  14.1295  14.2809  15.1870  15.3545
    16.2386  17.7565  18.6467  24.5619

          k = 0.1250-0.5000-0.5000 (  2324 PWs)   bands (ev):

   -70.5274 -36.6544 -36.6544 -36.6255 -32.7873 -32.7860 -32.7845 -32.7845
   -32.7771   2.7638   9.6893   9.6893  13.7972  14.5466  15.1938  15.1938
    16.2373  17.5679  18.1566  24.9444

          k = 0.2500 0.2500 0.2500 (  2292 PWs)   bands (ev):

   -70.5286 -36.6393 -36.6393 -36.6393 -32.7850 -32.7850 -32.7842 -32.7838
   -32.7838   1.5558  11.2359  11.2359  11.4700  14.9527  14.9527  15.7831
    16.8401  16.8401  21.9979  24.2431

          k = 0.2500 0.2500 0.3750 (  2313 PWs)   bands (ev):

   -70.5279 -36.6505 -36.6386 -36.6383 -32.7854 -32.7849 -32.7845 -32.7840
   -32.7813   2.1481   9.6381  11.3442  12.2732  14.8602  15.1232  15.4684
    16.4742  17.5530  20.9980  22.1887

          k = 0.2500 0.2500-0.5000 (  2314 PWs)   bands (ev):

   -70.5277 -36.6550 -36.6383 -36.6378 -32.7858 -32.7849 -32.7847 -32.7839
   -32.7797   2.4531   8.9456  11.3861  12.8250  14.8419  14.9489  15.3865
    16.3359  17.9932  20.5811  21.2761

          k = 0.2500 0.3750 0.3750 (  2299 PWs)   bands (ev):

   -70.5272 -36.6494 -36.6493 -36.6373 -32.7859 -32.7846 -32.7846 -32.7830
   -32.7793   2.7116  10.1175  10.1544  12.2577  14.8283  15.3120  15.3588
    16.5252  17.5779  19.7098  22.0508

          k = 0.2500 0.3750-0.5000 (  2316 PWs)   bands (ev):

   -70.5270 -36.6540 -36.6490 -36.6371 -32.7864 -32.7850 -32.7847 -32.7827
   -32.7781   2.9992   9.5028  10.3502  12.4644  14.6755  15.3516  15.5251
    16.3448  17.8857  18.9387  21.7169

          k = 0.2500-0.5000-0.5000 (  2300 PWs)   bands (ev):

   -70.5267 -36.6534 -36.6534 -36.6366 -32.7866 -32.7850 -32.7850 -32.7822
   -32.7769   3.2765   9.7709   9.7709  12.4452  14.5827  15.6822  15.6822
    16.2495  17.7997  18.1625  22.1807

          k = 0.3750 0.3750 0.3750 (  2314 PWs)   bands (ev):

   -70.5265 -36.6485 -36.6485 -36.6484 -32.7859 -32.7852 -32.7852 -32.7793
   -32.7793   3.3093  10.2427  10.2427  10.9102  15.3291  15.5242  15.5242
    17.1722  17.1722  20.1394  20.4695

          k = 0.3750 0.3750-0.5000 (  2320 PWs)   bands (ev):

   -70.5263 -36.6531 -36.6482 -36.6481 -32.7861 -32.7855 -32.7853 -32.7793
   -32.7777   3.6205   9.7474  10.2774  10.8998  15.4979  15.5865  16.1321
    16.5016  17.9157  19.1710  19.6581

          k = 0.3750-0.5000-0.5000 (  2308 PWs)   bands (ev):

   -70.5260 -36.6526 -36.6526 -36.6478 -32.7860 -32.7855 -32.7855 -32.7785
   -32.7769   3.9483   9.8476   9.8476  10.6416  15.6417  16.2613  16.5831
    16.5831  17.8851  18.1080  19.8310

          k =-0.5000-0.5000-0.5000 (  2320 PWs)   bands (ev):

   -70.5257 -36.6524 -36.6524 -36.6524 -32.7858 -32.7858 -32.7858 -32.7769
   -32.7769   4.3134   9.8777   9.8777   9.8777  16.2662  16.2662  17.9073
    17.9073  17.9073  18.0121  18.0121

     the Fermi energy is    16.1852 ev

!    total energy              =    -731.01944677 Ry
     estimated scf accuracy    <       0.00000059 Ry

     convergence has been achieved in   7 iterations

     Forces acting on atoms (cartesian axes, Ry/au):

     atom    1 type  2   force =     0.00000000    0.00000000    0.00000000
     atom    2 type  1   force =     0.00000000    0.00000000    0.00000000

     Total force =     0.000000     Total SCF correction =     0.000000


     Computing stress (Cartesian axis) and pressure

          total   stress  (Ry/bohr**3)                   (kbar)     P=      -67.26
  -0.00045720   0.00000000   0.00000000          -67.26        0.00        0.00
   0.00000000  -0.00045720   0.00000000            0.00      -67.26        0.00
   0.00000000   0.00000000  -0.00045720            0.00        0.00      -67.26


     Molecular Dynamics Calculation

     Starting temperature  =    10.00 K

     temperature is set once at start

     mass Se               =    78.96
     mass Fe               =    55.84
     Time step             =    20.00 a.u.,  0.9676 femto-seconds

     Entering Dynamics:    iteration =     1
                           time      =   0.0010 pico-seconds


ATOMIC_POSITIONS (angstrom)
Fe            0.0000000000        0.0000000000        0.0000000000
Se            1.5220010000        1.5220010000        1.5220010000


     kinetic energy (Ekin) =           0.00000000 Ry
     temperature           =           0.00000000 K 
     Ekin + Etot (const)   =        -731.01944677 Ry
     Ions kinetic stress =            0.00 (kbar)
                                      0.00           0.00           0.00
                                      0.00           0.00           0.00
                                      0.00           0.00           0.00



     Linear momentum :    0.0000000000    0.0000000000    0.0000000000

     File ./work/try_0/calculation_try_0.msd.dat deleted, as requested

     Writing config-only to output data dir ./work/try_0/calculation_try_0.save/
     NEW-OLD atomic charge density approx. for the potential

     Check: negative core charge=   -0.000005

     total cpu time spent up to now is       14.1 secs

     Self-consistent Calculation

     iteration #  1     ecut=    80.00 Ry     beta= 0.70
     Davidson diagonalization with overlap
     ethr =  1.00E-06,  avg # of iterations =  1.1

     Threshold (ethr) on eigenvalues was too large:
     Diagonalizing with lowered threshold

     Davidson diagonalization with overlap
     ethr =  8.68E-08,  avg # of iterations =  1.1

     total cpu time spent up to now is       16.5 secs

     total energy              =    -731.01942001 Ry
     estimated scf accuracy    <       0.00002868 Ry

     iteration #  2     ecut=    80.00 Ry     beta= 0.70
     Davidson diagonalization with overlap
     ethr =  8.96E-08,  avg # of iterations =  4.0

     total cpu time spent up to now is       18.3 secs

     total energy              =    -731.01940109 Ry
     estimated scf accuracy    <       0.00079387 Ry

     iteration #  3     ecut=    80.00 Ry     beta= 0.70
     Davidson diagonalization with overlap
     ethr =  8.96E-08,  avg # of iterations =  4.0

     total cpu time spent up to now is       20.1 secs

     End of self-consistent calculation

          k = 0.0000 0.0000 0.0000 (  2325 PWs)   bands (ev):

   -70.5336 -36.6281 -36.6281 -36.6281 -32.7929 -32.7929 -32.7815 -32.7815
   -32.7815  -0.4820  13.7609  13.7609  14.8990  14.8990  14.8990  15.6549
    15.6549  15.6549  19.3253  23.7079

          k = 0.0000 0.0000 0.1250 (  2317 PWs)   bands (ev):

   -70.5332 -36.6327 -36.6277 -36.6277 -32.7928 -32.7913 -32.7817 -32.7817
   -32.7815  -0.2891  12.4912  13.8347  14.4634  14.4634  14.9462  15.6692
    16.2669  16.2669  20.2226  23.6565

          k = 0.0000 0.0000 0.2500 (  2284 PWs)   bands (ev):

   -70.5325 -36.6438 -36.6268 -36.6268 -32.7926 -32.7875 -32.7823 -32.7823
   -32.7814   0.2458  10.1729  13.9617  13.9617  14.0215  15.4127  15.7040
    17.2745  17.2745  21.1361  23.5147

          k = 0.0000 0.0000 0.3750 (  2308 PWs)   bands (ev):

   -70.5318 -36.6553 -36.6262 -36.6262 -32.7926 -32.7837 -32.7830 -32.7830
   -32.7813   0.9379   8.2389  13.6384  13.6384  14.2211  15.7389  15.9817
    18.2892  18.2892  21.7501  23.3427

          k = 0.0000 0.0000-0.5000 (  2272 PWs)   bands (ev):

   -70.5315 -36.6598 -36.6256 -36.6256 -32.7924 -32.7832 -32.7832 -32.7821
   -32.7811   1.3079   7.4382  13.5277  13.5277  14.3088  15.7540  16.2452
    18.7903  18.7903  22.0870  23.2611

          k = 0.0000 0.1250 0.1250 (  2307 PWs)   bands (ev):

   -70.5329 -36.6325 -36.6322 -36.6273 -32.7920 -32.7905 -32.7820 -32.7818
   -32.7816  -0.0999  12.5651  12.5944  14.3127  14.3194  15.4951  15.5649
    16.0164  16.6832  21.1567  24.3013

          k = 0.0000 0.1250 0.2500 (  2293 PWs)   bands (ev):

   -70.5322 -36.6436 -36.6314 -36.6264 -32.7916 -32.7870 -32.7828 -32.7824
   -32.7816   0.4239  10.3311  12.7832  14.0206  14.3624  15.5530  15.6281
    16.5630  17.4612  22.0244  24.5615

          k = 0.0000 0.1250 0.3750 (  2299 PWs)   bands (ev):

   -70.5315 -36.6548 -36.6306 -36.6257 -32.7914 -32.7835 -32.7833 -32.7831
   -32.7817   1.0978   8.4445  12.9452  13.7737  14.3533  15.6075  16.0088
    17.2524  18.2540  22.4800  23.5551

          k = 0.0000 0.1250-0.5000 (  2314 PWs)   bands (ev):

   -70.5312 -36.6595 -36.6304 -36.6255 -32.7914 -32.7839 -32.7834 -32.7818
   -32.7817   1.4553   7.6642  12.9956  13.6823  14.3565  15.6359  16.2316
    17.6159  18.6321  22.4441  22.9215

          k = 0.0000 0.2500 0.2500 (  2286 PWs)   bands (ev):

   -70.5315 -36.6428 -36.6421 -36.6254 -32.7899 -32.7847 -32.7838 -32.7826
   -32.7823   0.9135  10.5239  11.0697  14.1227  14.5039  15.3479  15.9249
    16.0984  17.8079  22.2289  23.5494

          k = 0.0000 0.2500 0.3750 (  2287 PWs)   bands (ev):

   -70.5308 -36.6535 -36.6414 -36.6245 -32.7893 -32.7847 -32.7832 -32.7825
   -32.7816   1.5329   9.0111  11.3757  14.1372  14.4356  15.3307  16.0651
    16.3334  18.0814  20.7401  23.6656

          k = 0.0000 0.2500-0.5000 (  2300 PWs)   bands (ev):

   -70.5305 -36.6581 -36.6410 -36.6242 -32.7892 -32.7852 -32.7836 -32.7826
   -32.7801   1.8542   8.2992  11.6265  14.1153  14.3518  15.3734  16.1977
    16.4901  18.1822  19.9888  23.9058

          k = 0.0000 0.3750 0.3750 (  2304 PWs)   bands (ev):

   -70.5301 -36.6526 -36.6522 -36.6235 -32.7881 -32.7861 -32.7835 -32.7833
   -32.7791   2.0700   9.5970  10.0203  14.1967  14.5540  15.1312  16.0246
    16.1486  17.7628  19.1013  24.6366

          k = 0.0000 0.3750-0.5000 (  2290 PWs)   bands (ev):

   -70.5298 -36.6567 -36.6518 -36.6230 -32.7877 -32.7865 -32.7837 -32.7834
   -32.7778   2.3400   9.1571  10.2381  13.9383  14.6990  15.1349  15.9673
    16.2010  17.5681  18.5490  25.2726

          k = 0.0000-0.5000-0.5000 (  2296 PWs)   bands (ev):

   -70.5295 -36.6563 -36.6563 -36.6225 -32.7873 -32.7872 -32.7838 -32.7838
   -32.7767   2.5799   9.6541   9.6541  13.5165  15.0420  15.0420  15.8145
    16.2314  17.2082  18.1476  26.7567

          k = 0.1250 0.1250 0.1250 (  2310 PWs)   bands (ev):

   -70.5327 -36.6323 -36.6319 -36.6319 -32.7904 -32.7904 -32.7821 -32.7821
   -32.7820   0.0862  12.6394  12.6394  12.7822  14.9604  14.9604  16.1860
    16.2612  16.2612  22.2166  25.0801

          k = 0.1250 0.1250 0.2500 (  2300 PWs)   bands (ev):

   -70.5319 -36.6432 -36.6311 -36.6310 -32.7903 -32.7866 -32.7829 -32.7827
   -32.7820   0.6003  10.4936  12.7311  13.0949  14.6001  15.2867  15.8896
    16.5313  17.0996  23.0041  25.1805

          k = 0.1250 0.1250 0.3750 (  2292 PWs)   bands (ev):

   -70.5312 -36.6542 -36.6303 -36.6301 -32.7902 -32.7837 -32.7833 -32.7829
   -32.7820   1.2588   8.6431  12.7896  13.4332  14.4550  15.4347  16.0465
    16.7735  17.9193  22.7237  24.4199

          k = 0.1250 0.1250-0.5000 (  2300 PWs)   bands (ev):

   -70.5309 -36.6589 -36.6300 -36.6297 -32.7902 -32.7841 -32.7836 -32.7820
   -32.7814   1.6060   7.8788  12.8018  13.5491  14.4317  15.4845  16.2481
    16.8564  18.3238  22.2216  23.6307

          k = 0.1250 0.2500 0.2500 (  2295 PWs)   bands (ev):

   -70.5312 -36.6424 -36.6418 -36.6301 -32.7884 -32.7847 -32.7838 -32.7829
   -32.7827   1.0850  10.7467  11.1196  13.1945  14.6691  15.1594  16.0382
    16.2394  17.3303  22.4303  24.6031

          k = 0.1250 0.2500 0.3750 (  2301 PWs)   bands (ev):

   -70.5305 -36.6532 -36.6411 -36.6291 -32.7879 -32.7848 -32.7836 -32.7828
   -32.7815   1.6975   9.1852  11.4345  13.5611  14.5634  15.2094  15.9114
    16.2569  17.7889  20.9011  24.0966

          k = 0.1250 0.2500-0.5000 (  2286 PWs)   bands (ev):

   -70.5302 -36.6577 -36.6406 -36.6286 -32.7877 -32.7852 -32.7838 -32.7828
   -32.7800   2.0146   8.4755  11.6359  13.8049  14.4905  15.2236  15.8467
    16.2537  18.0748  20.2088  23.8082

          k = 0.1250 0.3750 0.3750 (  2310 PWs)   bands (ev):

   -70.5298 -36.6522 -36.6519 -36.6281 -32.7865 -32.7860 -32.7838 -32.7837
   -32.7791   2.2408   9.7470  10.0605  13.9065  14.4469  15.1930  15.5384
    16.2300  17.7139  19.2743  24.2732

          k = 0.1250 0.3750-0.5000 (  2300 PWs)   bands (ev):

   -70.5295 -36.6565 -36.6515 -36.6276 -32.7864 -32.7861 -32.7840 -32.7838
   -32.7778   2.5149   9.2579  10.2752  14.1288  14.2804  15.1859  15.3534
    16.2373  17.7557  18.6463  24.5617

          k = 0.1250-0.5000-0.5000 (  2324 PWs)   bands (ev):

   -70.5293 -36.6561 -36.6561 -36.6273 -32.7870 -32.7857 -32.7842 -32.7842
   -32.7768   2.7637   9.6892   9.6892  13.7967  14.5460  15.1928  15.1928
    16.2360  17.5672  18.1560  24.9442

          k = 0.2500 0.2500 0.2500 (  2292 PWs)   bands (ev):

   -70.5305 -36.6411 -36.6410 -36.6410 -32.7846 -32.7846 -32.7839 -32.7835
   -32.7835   1.5557  11.2357  11.2357  11.4700  14.9517  14.9517  15.7819
    16.8389  16.8389  21.9979  24.2429

          k = 0.2500 0.2500 0.3750 (  2313 PWs)   bands (ev):

   -70.5298 -36.6522 -36.6403 -36.6400 -32.7851 -32.7846 -32.7842 -32.7837
   -32.7810   2.1481   9.6381  11.3439  12.2731  14.8592  15.1222  15.4673
    16.4729  17.5519  20.9978  22.1884

          k = 0.2500 0.2500-0.5000 (  2314 PWs)   bands (ev):

   -70.5295 -36.6568 -36.6400 -36.6395 -32.7855 -32.7846 -32.7844 -32.7837
   -32.7794   2.4530   8.9456  11.3858  12.8250  14.8410  14.9480  15.3854
    16.3346  17.9920  20.5809  21.2759

          k = 0.2500 0.3750 0.3750 (  2299 PWs)   bands (ev):

   -70.5291 -36.6511 -36.6510 -36.6391 -32.7857 -32.7844 -32.7843 -32.7827
   -32.7790   2.7115  10.1174  10.1543  12.2575  14.8275  15.3109  15.3578
    16.5239  17.5768  19.7094  22.0506

          k = 0.2500 0.3750-0.5000 (  2316 PWs)   bands (ev):

   -70.5288 -36.6557 -36.6507 -36.6388 -32.7861 -32.7847 -32.7844 -32.7824
   -32.7778   2.9991   9.5028  10.3501  12.4642  14.6748  15.3506  15.5241
    16.3435  17.8846  18.9383  21.7166

          k = 0.2500-0.5000-0.5000 (  2300 PWs)   bands (ev):

   -70.5285 -36.6551 -36.6551 -36.6383 -32.7863 -32.7847 -32.7847 -32.7819
   -32.7766   3.2764   9.7708   9.7708  12.4449  14.5821  15.6812  15.6812
    16.2482  17.7986  18.1620  22.1804

          k = 0.3750 0.3750 0.3750 (  2314 PWs)   bands (ev):

   -70.5284 -36.6503 -36.6503 -36.6501 -32.7856 -32.7849 -32.7849 -32.7790
   -32.7790   3.3092  10.2425  10.2425  10.9101  15.3282  15.5232  15.5232
    17.1710  17.1710  20.1391  20.4692

          k = 0.3750 0.3750-0.5000 (  2320 PWs)   bands (ev):

   -70.5281 -36.6548 -36.6500 -36.6498 -32.7858 -32.7852 -32.7850 -32.7790
   -32.7774   3.6204   9.7472  10.2772  10.8996  15.4971  15.5854  16.1312
    16.5004  17.9144  19.1708  19.6576

          k = 0.3750-0.5000-0.5000 (  2308 PWs)   bands (ev):

   -70.5278 -36.6543 -36.6543 -36.6496 -32.7857 -32.7852 -32.7852 -32.7782
   -32.7766   3.9482   9.8474   9.8474  10.6414  15.6407  16.2600  16.5823
    16.5823  17.8839  18.1077  19.8306

          k =-0.5000-0.5000-0.5000 (  2320 PWs)   bands (ev):

   -70.5276 -36.6541 -36.6541 -36.6541 -32.7855 -32.7855 -32.7855 -32.7766
   -32.7766   4.3133   9.8775   9.8775   9.8775  16.2648  16.2648  17.9061
    17.9061  17.9061  18.0122  18.0122

     the Fermi energy is    16.1840 ev

!    total energy              =    -731.01944685 Ry
     estimated scf accuracy    <          7.5E-09 Ry

     convergence has been achieved in   3 iterations

     Forces acting on atoms (cartesian axes, Ry/au):

     atom    1 type  2   force =     0.00000000    0.00000000    0.00000000
     atom    2 type  1   force =     0.00000000    0.00000000    0.00000000

     Total force =     0.000000     Total SCF correction =     0.000000


     Computing stress (Cartesian axis) and pressure

          total   stress  (Ry/bohr**3)                   (kbar)     P=      -63.59
  -0.00043226   0.00000000   0.00000000          -63.59        0.00        0.00
   0.00000000  -0.00043226   0.00000000            0.00      -63.59        0.00
   0.00000000   0.00000000  -0.00043226            0.00        0.00      -63.59


     Entering Dynamics:    iteration =     2
                           time      =   0.0019 pico-seconds


ATOMIC_POSITIONS (angstrom)
Fe            0.0000000000        0.0000000000        0.0000000000
Se            1.5220010000        1.5220010000        1.5220010000


     kinetic energy (Ekin) =           0.00000000 Ry
     temperature           =           0.00000000 K 
     Ekin + Etot (const)   =        -731.01944685 Ry
     Ions kinetic stress =            0.00 (kbar)
                                      0.00           0.00           0.00
                                      0.00           0.00           0.00
                                      0.00           0.00           0.00



     Linear momentum :    0.0000000000    0.0000000000    0.0000000000

     Writing config-only to output data dir ./work/try_0/calculation_try_0.save/
     NEW-OLD atomic charge density approx. for the potential

     Check: negative core charge=   -0.000005

     total cpu time spent up to now is       21.1 secs

     Self-consistent Calculation

     iteration #  1     ecut=    80.00 Ry     beta= 0.70
     Davidson diagonalization with overlap
     ethr =  1.00E-06,  avg # of iterations =  1.0

     Threshold (ethr) on eigenvalues was too large:
     Diagonalizing with lowered threshold

     Davidson diagonalization with overlap
     ethr =  8.76E-10,  avg # of iterations =  1.5

     total cpu time spent up to now is       23.7 secs

     End of self-consistent calculation

          k = 0.0000 0.0000 0.0000 (  2325 PWs)   bands (ev):

   -70.5319 -36.6265 -36.6265 -36.6265 -32.7929 -32.7929 -32.7815 -32.7815
   -32.7815  -0.4820  13.7618  13.7618  14.8990  14.8990  14.8990  15.6562
    15.6562  15.6562  19.3254  23.7082

          k = 0.0000 0.0000 0.1250 (  2317 PWs)   bands (ev):

   -70.5315 -36.6311 -36.6261 -36.6261 -32.7928 -32.7913 -32.7817 -32.7817
   -32.7815  -0.2892  12.4915  13.8357  14.4638  14.4638  14.9469  15.6705
    16.2678  16.2678  20.2227  23.6568

          k = 0.0000 0.0000 0.2500 (  2284 PWs)   bands (ev):

   -70.5308 -36.6422 -36.6252 -36.6252 -32.7926 -32.7875 -32.7823 -32.7823
   -32.7813   0.2458  10.1729  13.9623  13.9623  14.0225  15.4138  15.7054
    17.2752  17.2752  21.1363  23.5148

          k = 0.0000 0.0000 0.3750 (  2308 PWs)   bands (ev):

   -70.5301 -36.6536 -36.6246 -36.6246 -32.7926 -32.7837 -32.7830 -32.7830
   -32.7813   0.9378   8.2389  13.6390  13.6390  14.2222  15.7402  15.9830
    18.2899  18.2899  21.7502  23.3427

          k = 0.0000 0.0000-0.5000 (  2272 PWs)   bands (ev):

   -70.5298 -36.6582 -36.6240 -36.6240 -32.7924 -32.7831 -32.7831 -32.7821
   -32.7811   1.3078   7.4382  13.5284  13.5284  14.3098  15.7554  16.2465
    18.7909  18.7909  22.0870  23.2609

          k = 0.0000 0.1250 0.1250 (  2307 PWs)   bands (ev):

   -70.5312 -36.6309 -36.6306 -36.6257 -32.7920 -32.7905 -32.7820 -32.7818
   -32.7816  -0.1000  12.5654  12.5947  14.3136  14.3199  15.4958  15.5662
    16.0175  16.6840  21.1568  24.3015

          k = 0.0000 0.1250 0.2500 (  2293 PWs)   bands (ev):

   -70.5305 -36.6419 -36.6298 -36.6248 -32.7915 -32.7870 -32.7828 -32.7824
   -32.7816   0.4238  10.3311  12.7835  14.0211  14.3634  15.5543  15.6292
    16.5639  17.4619  22.0246  24.5616

          k = 0.0000 0.1250 0.3750 (  2299 PWs)   bands (ev):

   -70.5298 -36.6531 -36.6290 -36.6241 -32.7914 -32.7835 -32.7832 -32.7831
   -32.7817   1.0977   8.4446  12.9456  13.7744  14.3544  15.6088  16.0100
    17.2532  18.2546  22.4801  23.5553

          k = 0.0000 0.1250-0.5000 (  2314 PWs)   bands (ev):

   -70.5295 -36.6579 -36.6287 -36.6238 -32.7914 -32.7839 -32.7834 -32.7818
   -32.7817   1.4553   7.6642  12.9960  13.6829  14.3576  15.6372  16.2330
    17.6167  18.6327  22.4443  22.9215

          k = 0.0000 0.2500 0.2500 (  2286 PWs)   bands (ev):

   -70.5298 -36.6412 -36.6405 -36.6238 -32.7899 -32.7847 -32.7837 -32.7826
   -32.7823   0.9134  10.5239  11.0697  14.1234  14.5050  15.3491  15.9261
    16.0996  17.8086  22.2291  23.5496

          k = 0.0000 0.2500 0.3750 (  2287 PWs)   bands (ev):

   -70.5291 -36.6519 -36.6398 -36.6229 -32.7893 -32.7847 -32.7832 -32.7825
   -32.7815   1.5329   9.0111  11.3758  14.1379  14.4366  15.3320  16.0664
    16.3345  18.0819  20.7404  23.6657

          k = 0.0000 0.2500-0.5000 (  2300 PWs)   bands (ev):

   -70.5288 -36.6565 -36.6394 -36.6226 -32.7892 -32.7852 -32.7836 -32.7826
   -32.7801   1.8542   8.2992  11.6266  14.1160  14.3528  15.3746  16.1990
    16.4911  18.1827  19.9892  23.9058

          k = 0.0000 0.3750 0.3750 (  2304 PWs)   bands (ev):

   -70.5284 -36.6510 -36.6506 -36.6219 -32.7881 -32.7861 -32.7835 -32.7833
   -32.7791   2.0700   9.5970  10.0203  14.1976  14.5549  15.1324  16.0258
    16.1499  17.7631  19.1018  24.6367

          k = 0.0000 0.3750-0.5000 (  2290 PWs)   bands (ev):

   -70.5281 -36.6551 -36.6501 -36.6214 -32.7877 -32.7865 -32.7837 -32.7834
   -32.7778   2.3399   9.1571  10.2380  13.9390  14.6999  15.1361  15.9685
    16.2024  17.5682  18.5496  25.2727

          k = 0.0000-0.5000-0.5000 (  2296 PWs)   bands (ev):

   -70.5278 -36.6547 -36.6547 -36.6208 -32.7873 -32.7872 -32.7838 -32.7838
   -32.7767   2.5799   9.6541   9.6541  13.5172  15.0432  15.0432  15.8157
    16.2328  17.2081  18.1484  26.7567

          k = 0.1250 0.1250 0.1250 (  2310 PWs)   bands (ev):

   -70.5309 -36.6307 -36.6302 -36.6302 -32.7904 -32.7904 -32.7821 -32.7821
   -32.7820   0.0861  12.6397  12.6397  12.7824  14.9614  14.9614  16.1871
    16.2621  16.2621  22.2167  25.0803

          k = 0.1250 0.1250 0.2500 (  2300 PWs)   bands (ev):

   -70.5302 -36.6415 -36.6295 -36.6294 -32.7903 -32.7866 -32.7829 -32.7827
   -32.7820   0.6002  10.4936  12.7315  13.0952  14.6012  15.2879  15.8907
    16.5323  17.1004  23.0043  25.1806

          k = 0.1250 0.1250 0.3750 (  2292 PWs)   bands (ev):

   -70.5295 -36.6526 -36.6287 -36.6284 -32.7902 -32.7837 -32.7833 -32.7829
   -32.7820   1.2587   8.6432  12.7900  13.4336  14.4561  15.4359  16.0478
    16.7744  17.9201  22.7239  24.4200

          k = 0.1250 0.1250-0.5000 (  2300 PWs)   bands (ev):

   -70.5292 -36.6573 -36.6284 -36.6280 -32.7901 -32.7841 -32.7836 -32.7820
   -32.7814   1.6059   7.8788  12.8022  13.5496  14.4328  15.4857  16.2494
    16.8572  18.3246  22.2217  23.6309

          k = 0.1250 0.2500 0.2500 (  2295 PWs)   bands (ev):

   -70.5295 -36.6407 -36.6402 -36.6285 -32.7884 -32.7847 -32.7838 -32.7829
   -32.7827   1.0850  10.7467  11.1196  13.1948  14.6702  15.1606  16.0394
    16.2406  17.3312  22.4305  24.6034

          k = 0.1250 0.2500 0.3750 (  2301 PWs)   bands (ev):

   -70.5288 -36.6516 -36.6395 -36.6275 -32.7878 -32.7848 -32.7836 -32.7828
   -32.7815   1.6975   9.1853  11.4346  13.5615  14.5644  15.2106  15.9126
    16.2581  17.7897  20.9014  24.0968

          k = 0.1250 0.2500-0.5000 (  2286 PWs)   bands (ev):

   -70.5285 -36.6560 -36.6390 -36.6270 -32.7877 -32.7852 -32.7838 -32.7828
   -32.7800   2.0146   8.4755  11.6360  13.8053  14.4915  15.2248  15.8477
    16.2550  18.0756  20.2092  23.8085

          k = 0.1250 0.3750 0.3750 (  2310 PWs)   bands (ev):

   -70.5281 -36.6506 -36.6503 -36.6265 -32.7865 -32.7859 -32.7838 -32.7836
   -32.7791   2.2408   9.7470  10.0605  13.9071  14.4477  15.1941  15.5396
    16.2313  17.7146  19.2748  24.2733

          k = 0.1250 0.3750-0.5000 (  2300 PWs)   bands (ev):

   -70.5278 -36.6548 -36.6499 -36.6260 -32.7864 -32.7861 -32.7840 -32.7837
   -32.7778   2.5148   9.2579  10.2752  14.1296  14.2809  15.1870  15.3546
    16.2386  17.7564  18.6469  24.5619

          k = 0.1250-0.5000-0.5000 (  2324 PWs)   bands (ev):

   -70.5275 -36.6545 -36.6545 -36.6257 -32.7869 -32.7857 -32.7842 -32.7842
   -32.7768   2.7636   9.6892   9.6892  13.7974  14.5466  15.1939  15.1939
    16.2374  17.5678  18.1567  24.9444

          k = 0.2500 0.2500 0.2500 (  2292 PWs)   bands (ev):

   -70.5288 -36.6395 -36.6394 -36.6394 -32.7846 -32.7846 -32.7839 -32.7835
   -32.7835   1.5557  11.2359  11.2359  11.4700  14.9528  14.9528  15.7831
    16.8400  16.8400  21.9980  24.2432

          k = 0.2500 0.2500 0.3750 (  2313 PWs)   bands (ev):

   -70.5281 -36.6506 -36.6387 -36.6384 -32.7851 -32.7846 -32.7842 -32.7837
   -32.7809   2.1480   9.6381  11.3441  12.2731  14.8603  15.1233  15.4685
    16.4742  17.5529  20.9981  22.1887

          k = 0.2500 0.2500-0.5000 (  2314 PWs)   bands (ev):

   -70.5278 -36.6551 -36.6384 -36.6379 -32.7855 -32.7846 -32.7844 -32.7836
   -32.7794   2.4529   8.9456  11.3860  12.8249  14.8420  14.9490  15.3866
    16.3359  17.9930  20.5813  21.2762

          k = 0.2500 0.3750 0.3750 (  2299 PWs)   bands (ev):

   -70.5274 -36.6495 -36.6494 -36.6374 -32.7856 -32.7843 -32.7843 -32.7827
   -32.7790   2.7114  10.1175  10.1543  12.2576  14.8285  15.3120  15.3589
    16.5252  17.5778  19.7099  22.0509

          k = 0.2500 0.3750-0.5000 (  2316 PWs)   bands (ev):

   -70.5271 -36.6541 -36.6491 -36.6372 -32.7861 -32.7847 -32.7844 -32.7824
   -32.7777   2.9990   9.5028  10.3502  12.4644  14.6757  15.3517  15.5251
    16.3448  17.8856  18.9388  21.7169

          k = 0.2500-0.5000-0.5000 (  2300 PWs)   bands (ev):

   -70.5268 -36.6535 -36.6535 -36.6367 -32.7863 -32.7847 -32.7847 -32.7819
   -32.7766   3.2763   9.7709   9.7709  12.4451  14.5829  15.6822  15.6822
    16.2496  17.7996  18.1626  22.1807

          k = 0.3750 0.3750 0.3750 (  2314 PWs)   bands (ev):

   -70.5267 -36.6487 -36.6487 -36.6485 -32.7856 -32.7849 -32.7849 -32.7790
   -32.7790   3.3092  10.2427  10.2427  10.9101  15.3292  15.5243  15.5243
    17.1721  17.1721  20.1395  20.4696

          k = 0.3750 0.3750-0.5000 (  2320 PWs)   bands (ev):

   -70.5264 -36.6532 -36.6483 -36.6482 -32.7858 -32.7852 -32.7850 -32.7790
   -32.7774   3.6203   9.7473  10.2774  10.8997  15.4980  15.5866  16.1321
    16.5016  17.9155  19.1711  19.6581

          k = 0.3750-0.5000-0.5000 (  2308 PWs)   bands (ev):

   -70.5261 -36.6527 -36.6527 -36.6479 -32.7857 -32.7852 -32.7852 -32.7782
   -32.7766   3.9481   9.8475   9.8475  10.6416  15.6418  16.2614  16.5831
    16.5831  17.8850  18.1081  19.8310

          k =-0.5000-0.5000-0.5000 (  2320 PWs)   bands (ev):

   -70.5259 -36.6525 -36.6525 -36.6525 -32.7855 -32.7855 -32.7855 -32.7766
   -32.7766   4.3132   9.8776   9.8776   9.8776  16.2662  16.2662  17.9072
    17.9072  17.9072  18.0123  18.0123

     the Fermi energy is    16.1852 ev

!    total energy              =    -731.01944730 Ry
     estimated scf accuracy    <       0.00000028 Ry

     convergence has been achieved in   1 iterations

     Forces acting on atoms (cartesian axes, Ry/au):

     atom    1 type  2   force =     0.00000000    0.00000000    0.00000000
     atom    2 type  1   force =     0.00000000    0.00000000    0.00000000

     Total force =     0.000000     Total SCF correction =     0.000000


     Computing stress (Cartesian axis) and pressure

          total   stress  (Ry/bohr**3)                   (kbar)     P=      -67.84
  -0.00046120   0.00000000   0.00000000          -67.84        0.00        0.00
   0.00000000  -0.00046120   0.00000000            0.00      -67.84        0.00
   0.00000000   0.00000000  -0.00046120            0.00        0.00      -67.84


     Entering Dynamics:    iteration =     3
                           time      =   0.0029 pico-seconds


ATOMIC_POSITIONS (angstrom)
Fe            0.0000000000        0.0000000000        0.0000000000
Se            1.5220010000        1.5220010000        1.5220010000


     kinetic energy (Ekin) =           0.00000000 Ry
     temperature           =           0.00000000 K 
     Ekin + Etot (const)   =        -731.01944730 Ry
     Ions kinetic stress =            0.00 (kbar)
                                      0.00           0.00           0.00
                                      0.00           0.00           0.00
                                      0.00           0.00           0.00



     Linear momentum :    0.0000000000    0.0000000000    0.0000000000

     Writing config-only to output data dir ./work/try_0/calculation_try_0.save/
     NEW-OLD atomic charge density approx. for the potential

     Check: negative core charge=   -0.000005

     total cpu time spent up to now is       24.8 secs

     Self-consistent Calculation

     iteration #  1     ecut=    80.00 Ry     beta= 0.70
     Davidson diagonalization with overlap
     ethr =  1.00E-06,  avg # of iterations =  1.0

     Threshold (ethr) on eigenvalues was too large:
     Diagonalizing with lowered threshold

     Davidson diagonalization with overlap
     ethr =  5.04E-08,  avg # of iterations =  1.0

     total cpu time spent up to now is       27.2 secs

     total energy              =    -731.01943039 Ry
     estimated scf accuracy    <       0.00001655 Ry

     iteration #  2     ecut=    80.00 Ry     beta= 0.70
     Davidson diagonalization with overlap
     ethr =  5.17E-08,  avg # of iterations =  4.1

     total cpu time spent up to now is       29.1 secs

     total energy              =    -731.01942564 Ry
     estimated scf accuracy    <       0.00045924 Ry

     iteration #  3     ecut=    80.00 Ry     beta= 0.70
     Davidson diagonalization with overlap
     ethr =  5.17E-08,  avg # of iterations =  4.0

     total cpu time spent up to now is       30.8 secs

     End of self-consistent calculation

          k = 0.0000 0.0000 0.0000 (  2325 PWs)   bands (ev):

   -70.5335 -36.6280 -36.6280 -36.6280 -32.7929 -32.7929 -32.7816 -32.7816
   -32.7816  -0.4820  13.7609  13.7609  14.8990  14.8990  14.8990  15.6549
    15.6549  15.6549  19.3253  23.7079

          k = 0.0000 0.0000 0.1250 (  2317 PWs)   bands (ev):

   -70.5332 -36.6327 -36.6276 -36.6276 -32.7928 -32.7914 -32.7818 -32.7818
   -32.7815  -0.2891  12.4912  13.8348  14.4634  14.4634  14.9462  15.6693
    16.2669  16.2669  20.2226  23.6565

          k = 0.0000 0.0000 0.2500 (  2284 PWs)   bands (ev):

   -70.5324 -36.6438 -36.6267 -36.6267 -32.7926 -32.7875 -32.7823 -32.7823
   -32.7814   0.2458  10.1729  13.9617  13.9617  14.0215  15.4128  15.7041
    17.2745  17.2745  21.1361  23.5147

          k = 0.0000 0.0000 0.3750 (  2308 PWs)   bands (ev):

   -70.5317 -36.6552 -36.6262 -36.6262 -32.7926 -32.7837 -32.7831 -32.7831
   -32.7814   0.9379   8.2389  13.6384  13.6384  14.2211  15.7390  15.9818
    18.2893  18.2893  21.7501  23.3427

          k = 0.0000 0.0000-0.5000 (  2272 PWs)   bands (ev):

   -70.5314 -36.6597 -36.6255 -36.6255 -32.7924 -32.7832 -32.7832 -32.7821
   -32.7812   1.3079   7.4382  13.5278  13.5278  14.3088  15.7541  16.2452
    18.7903  18.7903  22.0870  23.2611

          k = 0.0000 0.1250 0.1250 (  2307 PWs)   bands (ev):

   -70.5329 -36.6324 -36.6321 -36.6273 -32.7920 -32.7905 -32.7821 -32.7819
   -32.7816  -0.0999  12.5652  12.5945  14.3127  14.3194  15.4951  15.5650
    16.0165  16.6832  21.1567  24.3013

          k = 0.0000 0.1250 0.2500 (  2293 PWs)   bands (ev):

   -70.5321 -36.6435 -36.6313 -36.6263 -32.7916 -32.7870 -32.7828 -32.7824
   -32.7817   0.4239  10.3311  12.7833  14.0206  14.3625  15.5530  15.6282
    16.5630  17.4613  22.0244  24.5615

          k = 0.0000 0.1250 0.3750 (  2299 PWs)   bands (ev):

   -70.5314 -36.6547 -36.6305 -36.6256 -32.7914 -32.7835 -32.7833 -32.7831
   -32.7817   1.0978   8.4445  12.9452  13.7738  14.3534  15.6075  16.0089
    17.2524  18.2540  22.4800  23.5551

          k = 0.0000 0.1250-0.5000 (  2314 PWs)   bands (ev):

   -70.5311 -36.6594 -36.6303 -36.6254 -32.7914 -32.7839 -32.7834 -32.7818
   -32.7817   1.4553   7.6642  12.9956  13.6823  14.3566  15.6360  16.2317
    17.6159  18.6322  22.4441  22.9215

          k = 0.0000 0.2500 0.2500 (  2286 PWs)   bands (ev):

   -70.5314 -36.6427 -36.6420 -36.6253 -32.7899 -32.7848 -32.7838 -32.7827
   -32.7823   0.9135  10.5239  11.0697  14.1228  14.5040  15.3479  15.9250
    16.0985  17.8079  22.2289  23.5494

          k = 0.0000 0.2500 0.3750 (  2287 PWs)   bands (ev):

   -70.5307 -36.6534 -36.6414 -36.6244 -32.7893 -32.7848 -32.7832 -32.7825
   -32.7816   1.5329   9.0111  11.3757  14.1373  14.4356  15.3308  16.0652
    16.3335  18.0814  20.7401  23.6656

          k = 0.0000 0.2500-0.5000 (  2300 PWs)   bands (ev):

   -70.5304 -36.6581 -36.6410 -36.6241 -32.7892 -32.7852 -32.7836 -32.7826
   -32.7802   1.8542   8.2992  11.6265  14.1153  14.3519  15.3734  16.1978
    16.4901  18.1822  19.9888  23.9058

          k = 0.0000 0.3750 0.3750 (  2304 PWs)   bands (ev):

   -70.5300 -36.6525 -36.6521 -36.6234 -32.7881 -32.7861 -32.7835 -32.7834
   -32.7791   2.0700   9.5970  10.0203  14.1967  14.5541  15.1313  16.0247
    16.1487  17.7628  19.1013  24.6366

          k = 0.0000 0.3750-0.5000 (  2290 PWs)   bands (ev):

   -70.5297 -36.6566 -36.6517 -36.6230 -32.7877 -32.7866 -32.7838 -32.7835
   -32.7778   2.3400   9.1571  10.2381  13.9383  14.6990  15.1350  15.9674
    16.2011  17.5681  18.5490  25.2726

          k = 0.0000-0.5000-0.5000 (  2296 PWs)   bands (ev):

   -70.5294 -36.6562 -36.6562 -36.6224 -32.7873 -32.7872 -32.7838 -32.7838
   -32.7767   2.5799   9.6541   9.6541  13.5166  15.0421  15.0421  15.8145
    16.2315  17.2082  18.1477  26.7565

          k = 0.1250 0.1250 0.1250 (  2310 PWs)   bands (ev):

   -70.5326 -36.6322 -36.6318 -36.6318 -32.7905 -32.7905 -32.7821 -32.7821
   -32.7820   0.0862  12.6395  12.6395  12.7822  14.9604  14.9604  16.1860
    16.2612  16.2612  22.2166  25.0801

          k = 0.1250 0.1250 0.2500 (  2300 PWs)   bands (ev):

   -70.5318 -36.6431 -36.6310 -36.6310 -32.7903 -32.7867 -32.7829 -32.7828
   -32.7821   0.6003  10.4936  12.7311  13.0949  14.6002  15.2867  15.8896
    16.5313  17.0996  23.0041  25.1805

          k = 0.1250 0.1250 0.3750 (  2292 PWs)   bands (ev):

   -70.5311 -36.6541 -36.6302 -36.6300 -32.7902 -32.7838 -32.7833 -32.7829
   -32.7821   1.2588   8.6431  12.7896  13.4332  14.4551  15.4348  16.0466
    16.7735  17.9193  22.7237  24.4198

          k = 0.1250 0.1250-0.5000 (  2300 PWs)   bands (ev):

   -70.5308 -36.6588 -36.6299 -36.6296 -32.7902 -32.7841 -32.7836 -32.7821
   -32.7814   1.6060   7.8788  12.8018  13.5492  14.4318  15.4845  16.2482
    16.8564  18.3239  22.2216  23.6307

          k = 0.1250 0.2500 0.2500 (  2295 PWs)   bands (ev):

   -70.5311 -36.6423 -36.6417 -36.6300 -32.7884 -32.7848 -32.7838 -32.7830
   -32.7827   1.0850  10.7467  11.1196  13.1945  14.6692  15.1595  16.0383
    16.2395  17.3303  22.4303  24.6031

          k = 0.1250 0.2500 0.3750 (  2301 PWs)   bands (ev):

   -70.5304 -36.6531 -36.6410 -36.6291 -32.7879 -32.7848 -32.7836 -32.7829
   -32.7815   1.6975   9.1852  11.4345  13.5611  14.5634  15.2095  15.9115
    16.2569  17.7889  20.9011  24.0966

          k = 0.1250 0.2500-0.5000 (  2286 PWs)   bands (ev):

   -70.5301 -36.6576 -36.6405 -36.6285 -32.7877 -32.7852 -32.7839 -32.7829
   -32.7800   2.0146   8.4755  11.6359  13.8049  14.4905  15.2236  15.8467
    16.2538  18.0748  20.2088  23.8082

          k = 0.1250 0.3750 0.3750 (  2310 PWs)   bands (ev):

   -70.5297 -36.6521 -36.6518 -36.6280 -32.7865 -32.7860 -32.7839 -32.7837
   -32.7791   2.2408   9.7470  10.0605  13.9066  14.4469  15.1930  15.5385
    16.2301  17.7139  19.2743  24.2732

          k = 0.1250 0.3750-0.5000 (  2300 PWs)   bands (ev):

   -70.5294 -36.6564 -36.6514 -36.6276 -32.7864 -32.7862 -32.7841 -32.7838
   -32.7779   2.5149   9.2579  10.2752  14.1289  14.2804  15.1859  15.3535
    16.2373  17.7557  18.6463  24.5617

          k = 0.1250-0.5000-0.5000 (  2324 PWs)   bands (ev):

   -70.5292 -36.6561 -36.6561 -36.6272 -32.7870 -32.7857 -32.7842 -32.7842
   -32.7768   2.7637   9.6892   9.6892  13.7968  14.5461  15.1928  15.1928
    16.2361  17.5672  18.1560  24.9442

          k = 0.2500 0.2500 0.2500 (  2292 PWs)   bands (ev):

   -70.5304 -36.6410 -36.6410 -36.6410 -32.7847 -32.7847 -32.7840 -32.7836
   -32.7836   1.5557  11.2357  11.2357  11.4700  14.9517  14.9517  15.7820
    16.8390  16.8390  21.9979  24.2429

          k = 0.2500 0.2500 0.3750 (  2313 PWs)   bands (ev):

   -70.5297 -36.6521 -36.6402 -36.6399 -32.7851 -32.7846 -32.7842 -32.7837
   -32.7810   2.1481   9.6381  11.3439  12.2731  14.8593  15.1223  15.4673
    16.4730  17.5519  20.9978  22.1884

          k = 0.2500 0.2500-0.5000 (  2314 PWs)   bands (ev):

   -70.5294 -36.6567 -36.6399 -36.6394 -32.7856 -32.7846 -32.7845 -32.7837
   -32.7794   2.4530   8.9456  11.3858  12.8250  14.8410  14.9480  15.3854
    16.3346  17.9921  20.5809  21.2759

          k = 0.2500 0.3750 0.3750 (  2299 PWs)   bands (ev):

   -70.5290 -36.6510 -36.6509 -36.6390 -32.7857 -32.7844 -32.7844 -32.7827
   -32.7791   2.7115  10.1174  10.1543  12.2575  14.8275  15.3110  15.3578
    16.5240  17.5769  19.7094  22.0507

          k = 0.2500 0.3750-0.5000 (  2316 PWs)   bands (ev):

   -70.5287 -36.6556 -36.6506 -36.6387 -32.7861 -32.7847 -32.7844 -32.7825
   -32.7778   2.9991   9.5028  10.3501  12.4642  14.6748  15.3507  15.5241
    16.3435  17.8846  18.9383  21.7166

          k = 0.2500-0.5000-0.5000 (  2300 PWs)   bands (ev):

   -70.5284 -36.6550 -36.6550 -36.6383 -32.7863 -32.7847 -32.7847 -32.7819
   -32.7767   3.2764   9.7708   9.7708  12.4449  14.5821  15.6813  15.6813
    16.2483  17.7986  18.1620  22.1804

          k = 0.3750 0.3750 0.3750 (  2314 PWs)   bands (ev):

   -70.5283 -36.6502 -36.6502 -36.6500 -32.7856 -32.7850 -32.7850 -32.7790
   -32.7790   3.3092  10.2425  10.2425  10.9101  15.3283  15.5232  15.5232
    17.1711  17.1711  20.1391  20.4692

          k = 0.3750 0.3750-0.5000 (  2320 PWs)   bands (ev):

   -70.5281 -36.6547 -36.6499 -36.6497 -32.7858 -32.7852 -32.7850 -32.7790
   -32.7774   3.6204   9.7472  10.2772  10.8996  15.4971  15.5855  16.1313
    16.5004  17.9145  19.1708  19.6576

          k = 0.3750-0.5000-0.5000 (  2308 PWs)   bands (ev):

   -70.5278 -36.6542 -36.6542 -36.6495 -32.7857 -32.7853 -32.7853 -32.7782
   -32.7766   3.9482   9.8474   9.8474  10.6414  15.6408  16.2601  16.5823
    16.5823  17.8839  18.1078  19.8306

          k =-0.5000-0.5000-0.5000 (  2320 PWs)   bands (ev):

   -70.5275 -36.6540 -36.6540 -36.6540 -32.7856 -32.7856 -32.7856 -32.7766
   -32.7766   4.3133   9.8775   9.8775   9.8775  16.2649  16.2649  17.9061
    17.9061  17.9061  18.0122  18.0122

     the Fermi energy is    16.1840 ev

!    total energy              =    -731.01944690 Ry
     estimated scf accuracy    <          4.6E-09 Ry

     convergence has been achieved in   3 iterations

     Forces acting on atoms (cartesian axes, Ry/au):

     atom    1 type  2   force =     0.00000000    0.00000000    0.00000000
     atom    2 type  1   force =     0.00000000    0.00000000    0.00000000

     Total force =     0.000000     Total SCF correction =     0.000000


     Computing stress (Cartesian axis) and pressure

          total   stress  (Ry/bohr**3)                   (kbar)     P=      -63.71
  -0.00043312   0.00000000   0.00000000          -63.71        0.00        0.00
   0.00000000  -0.00043312   0.00000000            0.00      -63.71        0.00
   0.00000000   0.00000000  -0.00043312            0.00        0.00      -63.71


     Entering Dynamics:    iteration =     4
                           time      =   0.0039 pico-seconds


ATOMIC_POSITIONS (angstrom)
Fe            0.0000000000        0.0000000000        0.0000000000
Se            1.5220010000        1.5220010000        1.5220010000


     kinetic energy (Ekin) =           0.00000000 Ry
     temperature           =           0.00000000 K 
     Ekin + Etot (const)   =        -731.01944690 Ry
     Ions kinetic stress =            0.00 (kbar)
                                      0.00           0.00           0.00
                                      0.00           0.00           0.00
                                      0.00           0.00           0.00



     Linear momentum :    0.0000000000    0.0000000000    0.0000000000

     Writing config-only to output data dir ./work/try_0/calculation_try_0.save/
     NEW-OLD atomic charge density approx. for the potential

     Check: negative core charge=   -0.000005

     total cpu time spent up to now is       31.9 secs

     Self-consistent Calculation

     iteration #  1     ecut=    80.00 Ry     beta= 0.70
     Davidson diagonalization with overlap
     ethr =  1.00E-06,  avg # of iterations =  1.0

     Threshold (ethr) on eigenvalues was too large:
     Diagonalizing with lowered threshold

     Davidson diagonalization with overlap
     ethr =  5.12E-10,  avg # of iterations =  1.5

     total cpu time spent up to now is       34.3 secs

     End of self-consistent calculation

          k = 0.0000 0.0000 0.0000 (  2325 PWs)   bands (ev):

   -70.5322 -36.6268 -36.6268 -36.6268 -32.7929 -32.7929 -32.7815 -32.7815
   -32.7815  -0.4820  13.7616  13.7616  14.8990  14.8990  14.8990  15.6559
    15.6559  15.6559  19.3254  23.7082

          k = 0.0000 0.0000 0.1250 (  2317 PWs)   bands (ev):

   -70.5318 -36.6314 -36.6264 -36.6264 -32.7928 -32.7913 -32.7817 -32.7817
   -32.7814  -0.2892  12.4914  13.8355  14.4637  14.4637  14.9468  15.6703
    16.2676  16.2676  20.2227  23.6568

          k = 0.0000 0.0000 0.2500 (  2284 PWs)   bands (ev):

   -70.5311 -36.6425 -36.6255 -36.6255 -32.7926 -32.7875 -32.7822 -32.7822
   -32.7813   0.2458  10.1729  13.9622  13.9622  14.0223  15.4136  15.7051
    17.2751  17.2751  21.1363  23.5148

          k = 0.0000 0.0000 0.3750 (  2308 PWs)   bands (ev):

   -70.5304 -36.6539 -36.6249 -36.6249 -32.7926 -32.7837 -32.7830 -32.7830
   -32.7813   0.9378   8.2389  13.6389  13.6389  14.2220  15.7400  15.9828
    18.2898  18.2898  21.7502  23.3427

          k = 0.0000 0.0000-0.5000 (  2272 PWs)   bands (ev):

   -70.5301 -36.6585 -36.6243 -36.6243 -32.7924 -32.7831 -32.7831 -32.7821
   -32.7811   1.3078   7.4382  13.5283  13.5283  14.3096  15.7551  16.2463
    18.7908  18.7908  22.0870  23.2610

          k = 0.0000 0.1250 0.1250 (  2307 PWs)   bands (ev):

   -70.5315 -36.6312 -36.6308 -36.6260 -32.7920 -32.7905 -32.7820 -32.7818
   -32.7816  -0.0999  12.5653  12.5947  14.3134  14.3198  15.4957  15.5660
    16.0173  16.6838  21.1568  24.3015

          k = 0.0000 0.1250 0.2500 (  2293 PWs)   bands (ev):

   -70.5308 -36.6422 -36.6301 -36.6251 -32.7915 -32.7869 -32.7828 -32.7823
   -32.7816   0.4239  10.3311  12.7835  14.0210  14.3633  15.5540  15.6290
    16.5637  17.4618  22.0246  24.5616

          k = 0.0000 0.1250 0.3750 (  2299 PWs)   bands (ev):

   -70.5301 -36.6534 -36.6293 -36.6244 -32.7914 -32.7835 -32.7832 -32.7831
   -32.7816   1.0977   8.4446  12.9455  13.7742  14.3542  15.6085  16.0098
    17.2531  18.2545  22.4801  23.5553

          k = 0.0000 0.1250-0.5000 (  2314 PWs)   bands (ev):

   -70.5298 -36.6582 -36.6290 -36.6241 -32.7914 -32.7838 -32.7833 -32.7817
   -32.7817   1.4553   7.6642  12.9960  13.6828  14.3574  15.6370  16.2327
    17.6166  18.6326  22.4443  22.9215

          k = 0.0000 0.2500 0.2500 (  2286 PWs)   bands (ev):

   -70.5301 -36.6415 -36.6408 -36.6241 -32.7898 -32.7847 -32.7837 -32.7826
   -32.7822   0.9134  10.5239  11.0697  14.1233  14.5048  15.3489  15.9259
    16.0994  17.8084  22.2291  23.5496

          k = 0.0000 0.2500 0.3750 (  2287 PWs)   bands (ev):

   -70.5294 -36.6521 -36.6401 -36.6232 -32.7893 -32.7847 -32.7832 -32.7825
   -32.7815   1.5329   9.0111  11.3758  14.1378  14.4364  15.3317  16.0662
    16.3343  18.0818  20.7403  23.6657

          k = 0.0000 0.2500-0.5000 (  2300 PWs)   bands (ev):

   -70.5291 -36.6568 -36.6397 -36.6229 -32.7891 -32.7852 -32.7835 -32.7825
   -32.7801   1.8542   8.2992  11.6266  14.1159  14.3526  15.3744  16.1988
    16.4909  18.1826  19.9891  23.9058

          k = 0.0000 0.3750 0.3750 (  2304 PWs)   bands (ev):

   -70.5287 -36.6512 -36.6509 -36.6222 -32.7880 -32.7861 -32.7835 -32.7833
   -32.7790   2.0700   9.5970  10.0203  14.1974  14.5547  15.1322  16.0256
    16.1497  17.7631  19.1017  24.6367

          k = 0.0000 0.3750-0.5000 (  2290 PWs)   bands (ev):

   -70.5284 -36.6554 -36.6504 -36.6217 -32.7877 -32.7865 -32.7837 -32.7834
   -32.7778   2.3399   9.1571  10.2381  13.9389  14.6997  15.1359  15.9683
    16.2021  17.5682  18.5495  25.2727

          k = 0.0000-0.5000-0.5000 (  2296 PWs)   bands (ev):

   -70.5281 -36.6550 -36.6550 -36.6211 -32.7872 -32.7871 -32.7838 -32.7838
   -32.7767   2.5799   9.6541   9.6541  13.5171  15.0430  15.0430  15.8155
    16.2326  17.2082  18.1483  26.7566

          k = 0.1250 0.1250 0.1250 (  2310 PWs)   bands (ev):

   -70.5312 -36.6309 -36.6305 -36.6305 -32.7904 -32.7904 -32.7820 -32.7820
   -32.7819   0.0861  12.6397  12.6397  12.7823  14.9612  14.9612  16.1869
    16.2620  16.2620  22.2167  25.0802

          k = 0.1250 0.1250 0.2500 (  2300 PWs)   bands (ev):

   -70.5305 -36.6418 -36.6298 -36.6297 -32.7903 -32.7866 -32.7829 -32.7827
   -32.7820   0.6002  10.4936  12.7314  13.0952  14.6010  15.2877  15.8905
    16.5321  17.1003  23.0043  25.1806

          k = 0.1250 0.1250 0.3750 (  2292 PWs)   bands (ev):

   -70.5298 -36.6529 -36.6289 -36.6287 -32.7902 -32.7837 -32.7833 -32.7828
   -32.7820   1.2588   8.6432  12.7900  13.4335  14.4559  15.4357  16.0475
    16.7742  17.9200  22.7239  24.4198

          k = 0.1250 0.1250-0.5000 (  2300 PWs)   bands (ev):

   -70.5295 -36.6576 -36.6287 -36.6283 -32.7901 -32.7841 -32.7836 -32.7820
   -32.7813   1.6060   7.8788  12.8022  13.5495  14.4326  15.4855  16.2492
    16.8570  18.3245  22.2217  23.6309

          k = 0.1250 0.2500 0.2500 (  2295 PWs)   bands (ev):

   -70.5298 -36.6410 -36.6405 -36.6288 -32.7884 -32.7847 -32.7837 -32.7829
   -32.7827   1.0850  10.7467  11.1196  13.1948  14.6700  15.1604  16.0392
    16.2404  17.3310  22.4305  24.6033

          k = 0.1250 0.2500 0.3750 (  2301 PWs)   bands (ev):

   -70.5291 -36.6518 -36.6397 -36.6278 -32.7878 -32.7848 -32.7835 -32.7828
   -32.7814   1.6975   9.1853  11.4346  13.5614  14.5642  15.2104  15.9124
    16.2579  17.7896  20.9013  24.0967

          k = 0.1250 0.2500-0.5000 (  2286 PWs)   bands (ev):

   -70.5288 -36.6563 -36.6392 -36.6272 -32.7876 -32.7852 -32.7838 -32.7828
   -32.7799   2.0146   8.4755  11.6360  13.8052  14.4913  15.2246  15.8475
    16.2548  18.0755  20.2091  23.8084

          k = 0.1250 0.3750 0.3750 (  2310 PWs)   bands (ev):

   -70.5284 -36.6509 -36.6505 -36.6268 -32.7865 -32.7859 -32.7838 -32.7836
   -32.7791   2.2408   9.7470  10.0605  13.9070  14.4476  15.1939  15.5394
    16.2311  17.7145  19.2747  24.2733

          k = 0.1250 0.3750-0.5000 (  2300 PWs)   bands (ev):

   -70.5281 -36.6551 -36.6501 -36.6263 -32.7863 -32.7861 -32.7840 -32.7837
   -32.7778   2.5149   9.2579  10.2752  14.1295  14.2808  15.1868  15.3544
    16.2384  17.7563  18.6468  24.5619

          k = 0.1250-0.5000-0.5000 (  2324 PWs)   bands (ev):

   -70.5278 -36.6548 -36.6548 -36.6259 -32.7869 -32.7857 -32.7841 -32.7841
   -32.7768   2.7636   9.6892   9.6892  13.7973  14.5465  15.1937  15.1937
    16.2371  17.5677  18.1566  24.9444

          k = 0.2500 0.2500 0.2500 (  2292 PWs)   bands (ev):

   -70.5291 -36.6397 -36.6397 -36.6397 -32.7846 -32.7846 -32.7839 -32.7835
   -32.7835   1.5557  11.2359  11.2359  11.4700  14.9526  14.9526  15.7829
    16.8398  16.8398  21.9980  24.2431

          k = 0.2500 0.2500 0.3750 (  2313 PWs)   bands (ev):

   -70.5284 -36.6509 -36.6390 -36.6387 -32.7850 -32.7846 -32.7841 -32.7836
   -32.7809   2.1480   9.6381  11.3441  12.2731  14.8601  15.1231  15.4682
    16.4740  17.5528  20.9980  22.1887

          k = 0.2500 0.2500-0.5000 (  2314 PWs)   bands (ev):

   -70.5281 -36.6554 -36.6387 -36.6382 -32.7855 -32.7846 -32.7844 -32.7836
   -32.7794   2.4529   8.9456  11.3860  12.8249  14.8418  14.9488  15.3864
    16.3357  17.9929  20.5812  21.2762

          k = 0.2500 0.3750 0.3750 (  2299 PWs)   bands (ev):

   -70.5277 -36.6498 -36.6497 -36.6377 -32.7856 -32.7843 -32.7843 -32.7827
   -32.7790   2.7114  10.1175  10.1543  12.2576  14.8283  15.3118  15.3587
    16.5249  17.5777  19.7098  22.0509

          k = 0.2500 0.3750-0.5000 (  2316 PWs)   bands (ev):

   -70.5274 -36.6544 -36.6494 -36.6375 -32.7860 -32.7846 -32.7844 -32.7824
   -32.7777   2.9990   9.5028  10.3502  12.4643  14.6755  15.3515  15.5250
    16.3446  17.8854  18.9387  21.7169

          k = 0.2500-0.5000-0.5000 (  2300 PWs)   bands (ev):

   -70.5271 -36.6538 -36.6538 -36.6370 -32.7862 -32.7846 -32.7846 -32.7819
   -32.7766   3.2763   9.7709   9.7709  12.4451  14.5827  15.6820  15.6820
    16.2493  17.7994  18.1625  22.1807

          k = 0.3750 0.3750 0.3750 (  2314 PWs)   bands (ev):

   -70.5270 -36.6489 -36.6489 -36.6488 -32.7855 -32.7849 -32.7849 -32.7790
   -32.7790   3.3092  10.2426  10.2426  10.9101  15.3290  15.5241  15.5241
    17.1719  17.1719  20.1394  20.4695

          k = 0.3750 0.3750-0.5000 (  2320 PWs)   bands (ev):

   -70.5267 -36.6535 -36.6486 -36.6485 -32.7857 -32.7851 -32.7850 -32.7790
   -32.7774   3.6203   9.7473  10.2774  10.8997  15.4978  15.5864  16.1320
    16.5014  17.9154  19.1711  19.6580

          k = 0.3750-0.5000-0.5000 (  2308 PWs)   bands (ev):

   -70.5264 -36.6530 -36.6530 -36.6482 -32.7856 -32.7852 -32.7852 -32.7782
   -32.7766   3.9482   9.8475   9.8475  10.6416  15.6416  16.2612  16.5830
    16.5830  17.8848  18.1081  19.8309

          k =-0.5000-0.5000-0.5000 (  2320 PWs)   bands (ev):

   -70.5262 -36.6528 -36.6528 -36.6528 -32.7855 -32.7855 -32.7855 -32.7766
   -32.7766   4.3132   9.8776   9.8776   9.8776  16.2660  16.2660  17.9070
    17.9070  17.9070  18.0123  18.0123

     the Fermi energy is    16.1850 ev

!    total energy              =    -731.01944727 Ry
     estimated scf accuracy    <       0.00000016 Ry

     convergence has been achieved in   1 iterations

     Forces acting on atoms (cartesian axes, Ry/au):

     atom    1 type  2   force =     0.00000000    0.00000000    0.00000000
     atom    2 type  1   force =     0.00000000    0.00000000    0.00000000

     Total force =     0.000000     Total SCF correction =     0.000000


     Computing stress (Cartesian axis) and pressure

          total   stress  (Ry/bohr**3)                   (kbar)     P=      -67.09
  -0.00045609   0.00000000   0.00000000          -67.09        0.00        0.00
   0.00000000  -0.00045609   0.00000000            0.00      -67.09        0.00
   0.00000000   0.00000000  -0.00045609            0.00        0.00      -67.09


     Entering Dynamics:    iteration =     5
                           time      =   0.0048 pico-seconds


ATOMIC_POSITIONS (angstrom)
Fe            0.0000000000        0.0000000000        0.0000000000
Se            1.5220010000        1.5220010000        1.5220010000


     kinetic energy (Ekin) =           0.00000000 Ry
     temperature           =           0.00000000 K 
     Ekin + Etot (const)   =        -731.01944727 Ry
     Ions kinetic stress =            0.00 (kbar)
                                      0.00           0.00           0.00
                                      0.00           0.00           0.00
                                      0.00           0.00           0.00



     Linear momentum :    0.0000000000    0.0000000000    0.0000000000

     Writing config-only to output data dir ./work/try_0/calculation_try_0.save/
     NEW-OLD atomic charge density approx. for the potential

     Check: negative core charge=   -0.000005

     total cpu time spent up to now is       35.4 secs

     Self-consistent Calculation

     iteration #  1     ecut=    80.00 Ry     beta= 0.70
     Davidson diagonalization with overlap
     ethr =  1.00E-06,  avg # of iterations =  1.0

     Threshold (ethr) on eigenvalues was too large:
     Diagonalizing with lowered threshold

     Davidson diagonalization with overlap
     ethr =  2.94E-08,  avg # of iterations =  1.0

     total cpu time spent up to now is       37.8 secs

     total energy              =    -731.01943654 Ry
     estimated scf accuracy    <       0.00000966 Ry

     iteration #  2     ecut=    80.00 Ry     beta= 0.70
     Davidson diagonalization with overlap
     ethr =  3.02E-08,  avg # of iterations =  4.1

     total cpu time spent up to now is       39.6 secs

     total energy              =    -731.01943841 Ry
     estimated scf accuracy    <       0.00026845 Ry

     iteration #  3     ecut=    80.00 Ry     beta= 0.70
     Davidson diagonalization with overlap
     ethr =  3.02E-08,  avg # of iterations =  4.0

     total cpu time spent up to now is       41.4 secs

     End of self-consistent calculation

          k = 0.0000 0.0000 0.0000 (  2325 PWs)   bands (ev):

   -70.5334 -36.6279 -36.6279 -36.6279 -32.7929 -32.7929 -32.7815 -32.7815
   -32.7815  -0.4820  13.7609  13.7609  14.8990  14.8990  14.8990  15.6550
    15.6550  15.6550  19.3253  23.7079

          k = 0.0000 0.0000 0.1250 (  2317 PWs)   bands (ev):

   -70.5331 -36.6326 -36.6276 -36.6276 -32.7928 -32.7914 -32.7817 -32.7817
   -32.7815  -0.2891  12.4912  13.8348  14.4634  14.4634  14.9462  15.6693
    16.2670  16.2670  20.2226  23.6565

          k = 0.0000 0.0000 0.2500 (  2284 PWs)   bands (ev):

   -70.5323 -36.6437 -36.6266 -36.6266 -32.7926 -32.7875 -32.7823 -32.7823
   -32.7814   0.2458  10.1729  13.9618  13.9618  14.0216  15.4128  15.7042
    17.2746  17.2746  21.1361  23.5147

          k = 0.0000 0.0000 0.3750 (  2308 PWs)   bands (ev):

   -70.5316 -36.6551 -36.6261 -36.6261 -32.7926 -32.7837 -32.7830 -32.7830
   -32.7813   0.9379   8.2389  13.6384  13.6384  14.2212  15.7390  15.9819
    18.2893  18.2893  21.7501  23.3427

          k = 0.0000 0.0000-0.5000 (  2272 PWs)   bands (ev):

   -70.5313 -36.6597 -36.6255 -36.6255 -32.7924 -32.7832 -32.7832 -32.7821
   -32.7811   1.3079   7.4382  13.5278  13.5278  14.3089  15.7541  16.2453
    18.7904  18.7904  22.0870  23.2611

          k = 0.0000 0.1250 0.1250 (  2307 PWs)   bands (ev):

   -70.5328 -36.6323 -36.6320 -36.6272 -32.7920 -32.7905 -32.7820 -32.7818
   -32.7816  -0.0999  12.5652  12.5945  14.3128  14.3195  15.4952  15.5651
    16.0165  16.6832  21.1567  24.3013

          k = 0.0000 0.1250 0.2500 (  2293 PWs)   bands (ev):

   -70.5320 -36.6434 -36.6313 -36.6263 -32.7916 -32.7870 -32.7828 -32.7824
   -32.7816   0.4239  10.3311  12.7833  14.0206  14.3625  15.5531  15.6282
    16.5630  17.4613  22.0245  24.5615

          k = 0.0000 0.1250 0.3750 (  2299 PWs)   bands (ev):

   -70.5313 -36.6546 -36.6305 -36.6256 -32.7914 -32.7835 -32.7833 -32.7831
   -32.7817   1.0978   8.4446  12.9452  13.7738  14.3534  15.6076  16.0089
    17.2525  18.2540  22.4800  23.5552

          k = 0.0000 0.1250-0.5000 (  2314 PWs)   bands (ev):

   -70.5311 -36.6594 -36.6302 -36.6253 -32.7914 -32.7839 -32.7834 -32.7818
   -32.7817   1.4553   7.6642  12.9957  13.6823  14.3566  15.6360  16.2317
    17.6160  18.6322  22.4441  22.9215

          k = 0.0000 0.2500 0.2500 (  2286 PWs)   bands (ev):

   -70.5313 -36.6427 -36.6419 -36.6253 -32.7899 -32.7847 -32.7838 -32.7826
   -32.7823   0.9135  10.5239  11.0697  14.1228  14.5040  15.3480  15.9250
    16.0985  17.8080  22.2289  23.5494

          k = 0.0000 0.2500 0.3750 (  2287 PWs)   bands (ev):

   -70.5306 -36.6533 -36.6413 -36.6243 -32.7893 -32.7848 -32.7832 -32.7825
   -32.7816   1.5329   9.0111  11.3757  14.1373  14.4356  15.3308  16.0652
    16.3335  18.0815  20.7401  23.6656

          k = 0.0000 0.2500-0.5000 (  2300 PWs)   bands (ev):

   -70.5303 -36.6580 -36.6409 -36.6241 -32.7892 -32.7852 -32.7836 -32.7826
   -32.7802   1.8542   8.2992  11.6265  14.1153  14.3519  15.3735  16.1978
    16.4902  18.1823  19.9889  23.9058

          k = 0.0000 0.3750 0.3750 (  2304 PWs)   bands (ev):

   -70.5299 -36.6524 -36.6520 -36.6234 -32.7881 -32.7861 -32.7835 -32.7833
   -32.7791   2.0700   9.5970  10.0203  14.1968  14.5541  15.1313  16.0247
    16.1487  17.7629  19.1013  24.6366

          k = 0.0000 0.3750-0.5000 (  2290 PWs)   bands (ev):

   -70.5296 -36.6566 -36.6516 -36.6229 -32.7877 -32.7865 -32.7838 -32.7835
   -32.7778   2.3400   9.1571  10.2381  13.9383  14.6990  15.1350  15.9674
    16.2011  17.5681  18.5490  25.2726

          k = 0.0000-0.5000-0.5000 (  2296 PWs)   bands (ev):

   -70.5293 -36.6561 -36.6561 -36.6223 -32.7873 -32.7872 -32.7838 -32.7838
   -32.7767   2.5800   9.6541   9.6541  13.5166  15.0421  15.0421  15.8146
    16.2315  17.2082  18.1477  26.7565

          k = 0.1250 0.1250 0.1250 (  2310 PWs)   bands (ev):

   -70.5325 -36.6321 -36.6317 -36.6317 -32.7905 -32.7905 -32.7821 -32.7821
   -32.7820   0.0862  12.6395  12.6395  12.7822  14.9604  14.9604  16.1861
    16.2613  16.2613  22.2166  25.0801

          k = 0.1250 0.1250 0.2500 (  2300 PWs)   bands (ev):

   -70.5318 -36.6430 -36.6309 -36.6309 -32.7903 -32.7867 -32.7829 -32.7827
   -32.7820   0.6003  10.4936  12.7312  13.0950  14.6002  15.2868  15.8897
    16.5314  17.0996  23.0042  25.1805

          k = 0.1250 0.1250 0.3750 (  2292 PWs)   bands (ev):

   -70.5310 -36.6540 -36.6301 -36.6299 -32.7902 -32.7837 -32.7833 -32.7829
   -32.7820   1.2588   8.6431  12.7897  13.4332  14.4551  15.4348  16.0466
    16.7735  17.9194  22.7238  24.4197

          k = 0.1250 0.1250-0.5000 (  2300 PWs)   bands (ev):

   -70.5308 -36.6588 -36.6299 -36.6295 -32.7902 -32.7841 -32.7836 -32.7820
   -32.7814   1.6060   7.8788  12.8018  13.5492  14.4318  15.4846  16.2482
    16.8565  18.3239  22.2216  23.6307

          k = 0.1250 0.2500 0.2500 (  2295 PWs)   bands (ev):

   -70.5310 -36.6422 -36.6416 -36.6299 -32.7884 -32.7847 -32.7838 -32.7829
   -32.7827   1.0850  10.7467  11.1196  13.1945  14.6692  15.1595  16.0383
    16.2395  17.3304  22.4303  24.6032

          k = 0.1250 0.2500 0.3750 (  2301 PWs)   bands (ev):

   -70.5303 -36.6530 -36.6409 -36.6290 -32.7879 -32.7848 -32.7836 -32.7828
   -32.7815   1.6975   9.1853  11.4345  13.5611  14.5635  15.2095  15.9115
    16.2570  17.7890  20.9011  24.0966

          k = 0.1250 0.2500-0.5000 (  2286 PWs)   bands (ev):

   -70.5300 -36.6575 -36.6404 -36.6284 -32.7877 -32.7852 -32.7838 -32.7828
   -32.7800   2.0146   8.4755  11.6359  13.8049  14.4906  15.2237  15.8468
    16.2538  18.0749  20.2089  23.8083

          k = 0.1250 0.3750 0.3750 (  2310 PWs)   bands (ev):

   -70.5297 -36.6521 -36.6517 -36.6280 -32.7865 -32.7860 -32.7838 -32.7837
   -32.7791   2.2408   9.7470  10.0605  13.9066  14.4470  15.1931  15.5385
    16.2301  17.7140  19.2743  24.2732

          k = 0.1250 0.3750-0.5000 (  2300 PWs)   bands (ev):

   -70.5293 -36.6563 -36.6513 -36.6275 -32.7864 -32.7861 -32.7840 -32.7838
   -32.7779   2.5149   9.2579  10.2752  14.1289  14.2804  15.1860  15.3535
    16.2374  17.7557  18.6463  24.5617

          k = 0.1250-0.5000-0.5000 (  2324 PWs)   bands (ev):

   -70.5291 -36.6560 -36.6560 -36.6271 -32.7870 -32.7857 -32.7842 -32.7842
   -32.7768   2.7637   9.6892   9.6892  13.7968  14.5461  15.1929  15.1929
    16.2361  17.5672  18.1560  24.9442

          k = 0.2500 0.2500 0.2500 (  2292 PWs)   bands (ev):

   -70.5303 -36.6409 -36.6409 -36.6409 -32.7847 -32.7847 -32.7840 -32.7836
   -32.7836   1.5557  11.2358  11.2358  11.4700  14.9518  14.9518  15.7820
    16.8390  16.8390  21.9979  24.2429

          k = 0.2500 0.2500 0.3750 (  2313 PWs)   bands (ev):

   -70.5297 -36.6520 -36.6402 -36.6399 -32.7851 -32.7846 -32.7842 -32.7837
   -32.7810   2.1481   9.6381  11.3439  12.2731  14.8593  15.1223  15.4674
    16.4730  17.5520  20.9979  22.1884

          k = 0.2500 0.2500-0.5000 (  2314 PWs)   bands (ev):

   -70.5294 -36.6566 -36.6398 -36.6394 -32.7855 -32.7846 -32.7844 -32.7837
   -32.7794   2.4530   8.9456  11.3858  12.8250  14.8411  14.9481  15.3855
    16.3347  17.9921  20.5809  21.2759

          k = 0.2500 0.3750 0.3750 (  2299 PWs)   bands (ev):

   -70.5289 -36.6509 -36.6509 -36.6389 -32.7857 -32.7844 -32.7843 -32.7827
   -32.7790   2.7115  10.1174  10.1543  12.2575  14.8276  15.3110  15.3579
    16.5240  17.5769  19.7094  22.0507

          k = 0.2500 0.3750-0.5000 (  2316 PWs)   bands (ev):

   -70.5287 -36.6555 -36.6505 -36.6387 -32.7861 -32.7847 -32.7844 -32.7824
   -32.7778   2.9991   9.5028  10.3501  12.4642  14.6749  15.3507  15.5242
    16.3436  17.8847  18.9383  21.7166

          k = 0.2500-0.5000-0.5000 (  2300 PWs)   bands (ev):

   -70.5284 -36.6550 -36.6550 -36.6382 -32.7863 -32.7847 -32.7847 -32.7819
   -32.7766   3.2764   9.7709   9.7709  12.4449  14.5822  15.6813  15.6813
    16.2483  17.7987  18.1620  22.1804

          k = 0.3750 0.3750 0.3750 (  2314 PWs)   bands (ev):

   -70.5283 -36.6501 -36.6501 -36.6500 -32.7856 -32.7850 -32.7850 -32.7790
   -32.7790   3.3092  10.2425  10.2425  10.9101  15.3283  15.5233  15.5233
    17.1711  17.1711  20.1391  20.4692

          k = 0.3750 0.3750-0.5000 (  2320 PWs)   bands (ev):

   -70.5280 -36.6546 -36.6498 -36.6497 -32.7858 -32.7852 -32.7850 -32.7790
   -32.7774   3.6204   9.7473  10.2772  10.8997  15.4971  15.5855  16.1313
    16.5005  17.9145  19.1708  19.6576

          k = 0.3750-0.5000-0.5000 (  2308 PWs)   bands (ev):

   -70.5277 -36.6542 -36.6542 -36.6494 -32.7857 -32.7853 -32.7853 -32.7782
   -32.7766   3.9482   9.8474   9.8474  10.6415  15.6408  16.2601  16.5824
    16.5824  17.8840  18.1078  19.8306

          k =-0.5000-0.5000-0.5000 (  2320 PWs)   bands (ev):

   -70.5274 -36.6540 -36.6540 -36.6540 -32.7855 -32.7855 -32.7855 -32.7766
   -32.7766   4.3133   9.8775   9.8775   9.8775  16.2650  16.2650  17.9062
    17.9062  17.9062  18.0122  18.0122

     the Fermi energy is    16.1841 ev

!    total energy              =    -731.01944693 Ry
     estimated scf accuracy    <          2.7E-09 Ry

     convergence has been achieved in   3 iterations

     Forces acting on atoms (cartesian axes, Ry/au):

     atom    1 type  2   force =     0.00000000    0.00000000    0.00000000
     atom    2 type  1   force =     0.00000000    0.00000000    0.00000000

     Total force =     0.000000     Total SCF correction =     0.000000


     Computing stress (Cartesian axis) and pressure

          total   stress  (Ry/bohr**3)                   (kbar)     P=      -63.90
  -0.00043439   0.00000000   0.00000000          -63.90        0.00        0.00
   0.00000000  -0.00043439   0.00000000            0.00      -63.90        0.00
   0.00000000   0.00000000  -0.00043439            0.00        0.00      -63.90


     Entering Dynamics:    iteration =     6
                           time      =   0.0058 pico-seconds


ATOMIC_POSITIONS (angstrom)
Fe            0.0000000000        0.0000000000        0.0000000000
Se            1.5220010000        1.5220010000        1.5220010000


     kinetic energy (Ekin) =           0.00000000 Ry
     temperature           =           0.00000000 K 
     Ekin + Etot (const)   =        -731.01944693 Ry
     Ions kinetic stress =            0.00 (kbar)
                                      0.00           0.00           0.00
                                      0.00           0.00           0.00
                                      0.00           0.00           0.00



     Linear momentum :    0.0000000000    0.0000000000    0.0000000000

     Writing config-only to output data dir ./work/try_0/calculation_try_0.save/
     NEW-OLD atomic charge density approx. for the potential

     Check: negative core charge=   -0.000005

     total cpu time spent up to now is       42.4 secs

     Self-consistent Calculation

     iteration #  1     ecut=    80.00 Ry     beta= 0.70
     Davidson diagonalization with overlap
     ethr =  1.00E-06,  avg # of iterations =  1.0

     Threshold (ethr) on eigenvalues was too large:
     Diagonalizing with lowered threshold

     Davidson diagonalization with overlap
     ethr =  3.09E-10,  avg # of iterations =  1.5

     total cpu time spent up to now is       44.9 secs

[...]

          k = 0.1250 0.2500 0.3750 (  2301 PWs)   bands (ev):

   -70.5296 -36.6523 -36.6402 -36.6283 -32.7878 -32.7847 -32.7835 -32.7827
   -32.7814   1.6975   9.1853  11.4346  13.5613  14.5639  15.2100  15.9120
    16.2575  17.7893  20.9012  24.0967

          k = 0.1250 0.2500-0.5000 (  2286 PWs)   bands (ev):

   -70.5293 -36.6568 -36.6397 -36.6277 -32.7876 -32.7851 -32.7837 -32.7827
   -32.7799   2.0146   8.4756  11.6360  13.8051  14.4910  15.2242  15.8472
    16.2544  18.0752  20.2090  23.8084

          k = 0.1250 0.3750 0.3750 (  2310 PWs)   bands (ev):

   -70.5289 -36.6514 -36.6510 -36.6273 -32.7864 -32.7859 -32.7837 -32.7836
   -32.7790   2.2409   9.7470  10.0605  13.9068  14.4473  15.1936  15.5390
    16.2307  17.7143  19.2746  24.2732

          k = 0.1250 0.3750-0.5000 (  2300 PWs)   bands (ev):

   -70.5286 -36.6556 -36.6506 -36.6268 -32.7863 -32.7860 -32.7839 -32.7837
   -32.7778   2.5149   9.2579  10.2752  14.1292  14.2806  15.1864  15.3540
    16.2380  17.7561  18.6466  24.5618

          k = 0.1250-0.5000-0.5000 (  2324 PWs)   bands (ev):

   -70.5284 -36.6553 -36.6553 -36.6264 -32.7869 -32.7856 -32.7841 -32.7841
   -32.7767   2.7637   9.6892   9.6892  13.7971  14.5463  15.1933  15.1933
    16.2367  17.5675  18.1563  24.9443

          k = 0.2500 0.2500 0.2500 (  2292 PWs)   bands (ev):

   -70.5296 -36.6402 -36.6402 -36.6402 -32.7846 -32.7846 -32.7839 -32.7835
   -32.7835   1.5558  11.2358  11.2358  11.4700  14.9522  14.9522  15.7825
    16.8395  16.8395  21.9980  24.2430

          k = 0.2500 0.2500 0.3750 (  2313 PWs)   bands (ev):

   -70.5289 -36.6514 -36.6395 -36.6392 -32.7850 -32.7845 -32.7841 -32.7836
   -32.7809   2.1481   9.6381  11.3441  12.2731  14.8598  15.1228  15.4679
    16.4736  17.5524  20.9980  22.1886

          k = 0.2500 0.2500-0.5000 (  2314 PWs)   bands (ev):

   -70.5286 -36.6559 -36.6392 -36.6387 -32.7854 -32.7845 -32.7843 -32.7836
   -32.7793   2.4530   8.9457  11.3859  12.8250  14.8415  14.9485  15.3860
    16.3353  17.9926  20.5811  21.2761

          k = 0.2500 0.3750 0.3750 (  2299 PWs)   bands (ev):

   -70.5282 -36.6503 -36.6502 -36.6382 -32.7856 -32.7843 -32.7842 -32.7826
   -32.7789   2.7115  10.1175  10.1543  12.2576  14.8280  15.3115  15.3583
    16.5246  17.5773  19.7096  22.0508

          k = 0.2500 0.3750-0.5000 (  2316 PWs)   bands (ev):

   -70.5280 -36.6549 -36.6499 -36.6380 -32.7860 -32.7846 -32.7843 -32.7823
   -32.7777   2.9991   9.5028  10.3501  12.4643  14.6752  15.3511  15.5246
    16.3442  17.8851  18.9385  21.7168

          k = 0.2500-0.5000-0.5000 (  2300 PWs)   bands (ev):

   -70.5276 -36.6543 -36.6543 -36.6375 -32.7862 -32.7846 -32.7846 -32.7818
   -32.7765   3.2764   9.7709   9.7709  12.4450  14.5825  15.6817  15.6817
    16.2489  17.7991  18.1623  22.1806

          k = 0.3750 0.3750 0.3750 (  2314 PWs)   bands (ev):

   -70.5275 -36.6494 -36.6494 -36.6493 -32.7855 -32.7849 -32.7849 -32.7789
   -32.7789   3.3093  10.2426  10.2426  10.9102  15.3287  15.5237  15.5237
    17.1716  17.1716  20.1393  20.4694

          k = 0.3750 0.3750-0.5000 (  2320 PWs)   bands (ev):

   -70.5273 -36.6540 -36.6491 -36.6490 -32.7857 -32.7851 -32.7849 -32.7789
   -32.7773   3.6204   9.7473  10.2773  10.8997  15.4975  15.5860  16.1317
    16.5010  17.9150  19.1710  19.6579

          k = 0.3750-0.5000-0.5000 (  2308 PWs)   bands (ev):

   -70.5270 -36.6535 -36.6535 -36.6487 -32.7856 -32.7852 -32.7852 -32.7781
   -32.7765   3.9482   9.8475   9.8475  10.6415  15.6413  16.2607  16.5827
    16.5827  17.8844  18.1079  19.8308

          k =-0.5000-0.5000-0.5000 (  2320 PWs)   bands (ev):

   -70.5267 -36.6533 -36.6533 -36.6533 -32.7854 -32.7854 -32.7854 -32.7765
   -32.7765   4.3133   9.8776   9.8776   9.8776  16.2655  16.2655  17.9067
    17.9067  17.9067  18.0122  18.0122

     the Fermi energy is    16.1846 ev

!    total energy              =    -731.01944716 Ry
     estimated scf accuracy    <       0.00000003 Ry

     convergence has been achieved in   1 iterations

     Forces acting on atoms (cartesian axes, Ry/au):

     atom    1 type  2   force =     0.00000000    0.00000000    0.00000000
     atom    2 type  1   force =     0.00000000    0.00000000    0.00000000

     Total force =     0.000000     Total SCF correction =     0.000000


     Computing stress (Cartesian axis) and pressure

          total   stress  (Ry/bohr**3)                   (kbar)     P=      -65.79
  -0.00044725   0.00000000   0.00000000          -65.79        0.00        0.00
   0.00000000  -0.00044725   0.00000000            0.00      -65.79        0.00
   0.00000000   0.00000000  -0.00044725            0.00        0.00      -65.79


     Entering Dynamics:    iteration =    49
                           time      =   0.0474 pico-seconds


ATOMIC_POSITIONS (angstrom)
Fe            0.0000000000        0.0000000000        0.0000000000
Se            1.5220010000        1.5220010000        1.5220010000


     kinetic energy (Ekin) =           0.00000000 Ry
     temperature           =           0.00000000 K 
     Ekin + Etot (const)   =        -731.01944716 Ry
     Ions kinetic stress =            0.00 (kbar)
                                      0.00           0.00           0.00
                                      0.00           0.00           0.00
                                      0.00           0.00           0.00



     Linear momentum :    0.0000000000    0.0000000000    0.0000000000

     Writing config-only to output data dir ./work/try_0/calculation_try_0.save/
     NEW-OLD atomic charge density approx. for the potential

     Check: negative core charge=   -0.000005

     total cpu time spent up to now is      264.5 secs

     Self-consistent Calculation

     iteration #  1     ecut=    80.00 Ry     beta= 0.70
     Davidson diagonalization with overlap
     ethr =  1.00E-06,  avg # of iterations =  1.0

     Threshold (ethr) on eigenvalues was too large:
     Diagonalizing with lowered threshold

     Davidson diagonalization with overlap
     ethr =  6.20E-09,  avg # of iterations =  1.0

     total cpu time spent up to now is      266.9 secs

     total energy              =    -731.01944401 Ry
     estimated scf accuracy    <       0.00000204 Ry

     iteration #  2     ecut=    80.00 Ry     beta= 0.70
     Davidson diagonalization with overlap
     ethr =  6.37E-09,  avg # of iterations =  4.1

     total cpu time spent up to now is      268.7 secs

     total energy              =    -731.01944930 Ry
     estimated scf accuracy    <       0.00005674 Ry

     iteration #  3     ecut=    80.00 Ry     beta= 0.70
     Davidson diagonalization with overlap
     ethr =  6.37E-09,  avg # of iterations =  4.0

     total cpu time spent up to now is      270.5 secs

     End of self-consistent calculation

          k = 0.0000 0.0000 0.0000 (  2325 PWs)   bands (ev):

   -70.5333 -36.6278 -36.6278 -36.6278 -32.7929 -32.7929 -32.7815 -32.7815
   -32.7815  -0.4819  13.7610  13.7610  14.8990  14.8990  14.8990  15.6551
    15.6551  15.6551  19.3253  23.7080

          k = 0.0000 0.0000 0.1250 (  2317 PWs)   bands (ev):

   -70.5329 -36.6325 -36.6274 -36.6274 -32.7928 -32.7913 -32.7817 -32.7817
   -32.7814  -0.2891  12.4913  13.8349  14.4635  14.4635  14.9463  15.6694
    16.2671  16.2671  20.2226  23.6566

          k = 0.0000 0.0000 0.2500 (  2284 PWs)   bands (ev):

   -70.5322 -36.6436 -36.6265 -36.6265 -32.7926 -32.7875 -32.7822 -32.7822
   -32.7813   0.2458  10.1729  13.9618  13.9618  14.0216  15.4129  15.7043
    17.2746  17.2746  21.1362  23.5147

          k = 0.0000 0.0000 0.3750 (  2308 PWs)   bands (ev):

   -70.5315 -36.6550 -36.6260 -36.6260 -32.7926 -32.7837 -32.7830 -32.7830
   -32.7813   0.9379   8.2389  13.6385  13.6385  14.2213  15.7391  15.9819
    18.2894  18.2894  21.7502  23.3427

          k = 0.0000 0.0000-0.5000 (  2272 PWs)   bands (ev):

   -70.5312 -36.6595 -36.6253 -36.6253 -32.7924 -32.7831 -32.7831 -32.7821
   -32.7811   1.3079   7.4382  13.5279  13.5279  14.3089  15.7542  16.2454
    18.7904  18.7904  22.0870  23.2611

          k = 0.0000 0.1250 0.1250 (  2307 PWs)   bands (ev):

   -70.5326 -36.6322 -36.6319 -36.6271 -32.7920 -32.7905 -32.7820 -32.7818
   -32.7816  -0.0999  12.5652  12.5945  14.3128  14.3195  15.4952  15.5652
    16.0166  16.6833  21.1567  24.3013

          k = 0.0000 0.1250 0.2500 (  2293 PWs)   bands (ev):

   -70.5319 -36.6433 -36.6312 -36.6261 -32.7915 -32.7869 -32.7828 -32.7823
   -32.7816   0.4239  10.3311  12.7833  14.0207  14.3626  15.5532  15.6283
    16.5631  17.4614  22.0245  24.5615

          k = 0.0000 0.1250 0.3750 (  2299 PWs)   bands (ev):

   -70.5312 -36.6545 -36.6303 -36.6255 -32.7914 -32.7835 -32.7832 -32.7831
   -32.7816   1.0978   8.4446  12.9453  13.7738  14.3535  15.6077  16.0090
    17.2525  18.2541  22.4800  23.5552

          k = 0.0000 0.1250-0.5000 (  2314 PWs)   bands (ev):

   -70.5309 -36.6592 -36.6301 -36.6252 -32.7914 -32.7838 -32.7833 -32.7817
   -32.7817   1.4554   7.6642  12.9957  13.6824  14.3567  15.6361  16.2318
    17.6160  18.6323  22.4442  22.9215

          k = 0.0000 0.2500 0.2500 (  2286 PWs)   bands (ev):

   -70.5312 -36.6425 -36.6418 -36.6252 -32.7899 -32.7847 -32.7837 -32.7826
   -32.7823   0.9135  10.5239  11.0697  14.1229  14.5041  15.3481  15.9251
    16.0986  17.8080  22.2290  23.5494

          k = 0.0000 0.2500 0.3750 (  2287 PWs)   bands (ev):

   -70.5305 -36.6532 -36.6412 -36.6242 -32.7893 -32.7847 -32.7832 -32.7825
   -32.7815   1.5329   9.0111  11.3757  14.1374  14.4357  15.3309  16.0653
    16.3336  18.0815  20.7401  23.6656

          k = 0.0000 0.2500-0.5000 (  2300 PWs)   bands (ev):

   -70.5302 -36.6579 -36.6408 -36.6239 -32.7892 -32.7852 -32.7836 -32.7825
   -32.7801   1.8543   8.2992  11.6265  14.1154  14.3520  15.3736  16.1979
    16.4902  18.1823  19.9889  23.9058

          k = 0.0000 0.3750 0.3750 (  2304 PWs)   bands (ev):

   -70.5298 -36.6523 -36.6519 -36.6232 -32.7880 -32.7861 -32.7835 -32.7833
   -32.7790   2.0701   9.5970  10.0203  14.1968  14.5542  15.1314  16.0248
    16.1488  17.7629  19.1014  24.6366

          k = 0.0000 0.3750-0.5000 (  2290 PWs)   bands (ev):

   -70.5295 -36.6564 -36.6515 -36.6228 -32.7877 -32.7865 -32.7837 -32.7834
   -32.7778   2.3400   9.1571  10.2381  13.9384  14.6991  15.1351  15.9675
    16.2012  17.5681  18.5491  25.2726

          k = 0.0000-0.5000-0.5000 (  2296 PWs)   bands (ev):

   -70.5292 -36.6560 -36.6560 -36.6222 -32.7872 -32.7871 -32.7838 -32.7838
   -32.7767   2.5800   9.6541   9.6541  13.5166  15.0422  15.0422  15.8147
    16.2316  17.2083  18.1477  26.7565

          k = 0.1250 0.1250 0.1250 (  2310 PWs)   bands (ev):

   -70.5324 -36.6320 -36.6316 -36.6316 -32.7904 -32.7904 -32.7821 -32.7821
   -32.7820   0.0862  12.6395  12.6395  12.7822  14.9605  14.9605  16.1862
    16.2613  16.2613  22.2166  25.0801

          k = 0.1250 0.1250 0.2500 (  2300 PWs)   bands (ev):

   -70.5316 -36.6429 -36.6308 -36.6308 -32.7903 -32.7866 -32.7829 -32.7827
   -32.7820   0.6003  10.4936  12.7312  13.0950  14.6003  15.2869  15.8898
    16.5315  17.0997  23.0042  25.1805

          k = 0.1250 0.1250 0.3750 (  2292 PWs)   bands (ev):

   -70.5309 -36.6539 -36.6300 -36.6298 -32.7902 -32.7837 -32.7833 -32.7828
   -32.7820   1.2588   8.6432  12.7897  13.4333  14.4552  15.4349  16.0467
    16.7736  17.9194  22.7238  24.4187

          k = 0.1250 0.1250-0.5000 (  2300 PWs)   bands (ev):

   -70.5306 -36.6586 -36.6297 -36.6294 -32.7901 -32.7841 -32.7836 -32.7820
   -32.7813   1.6060   7.8788  12.8019  13.5492  14.4319  15.4847  16.2483
    16.8565  18.3240  22.2216  23.6308

          k = 0.1250 0.2500 0.2500 (  2295 PWs)   bands (ev):

   -70.5309 -36.6421 -36.6415 -36.6298 -32.7884 -32.7847 -32.7837 -32.7829
   -32.7827   1.0850  10.7467  11.1196  13.1945  14.6693  15.1596  16.0384
    16.2396  17.3304  22.4304  24.6032

          k = 0.1250 0.2500 0.3750 (  2301 PWs)   bands (ev):

   -70.5302 -36.6529 -36.6408 -36.6289 -32.7878 -32.7848 -32.7836 -32.7828
   -32.7815   1.6976   9.1853  11.4345  13.5612  14.5636  15.2096  15.9116
    16.2571  17.7890  20.9011  24.0966

          k = 0.1250 0.2500-0.5000 (  2286 PWs)   bands (ev):

   -70.5299 -36.6574 -36.6403 -36.6283 -32.7876 -32.7852 -32.7838 -32.7828
   -32.7800   2.0147   8.4756  11.6359  13.8050  14.4907  15.2238  15.8468
    16.2539  18.0750  20.2089  23.8083

          k = 0.1250 0.3750 0.3750 (  2310 PWs)   bands (ev):

   -70.5295 -36.6519 -36.6516 -36.6278 -32.7865 -32.7859 -32.7838 -32.7836
   -32.7791   2.2409   9.7470  10.0605  13.9066  14.4470  15.1932  15.5386
    16.2302  17.7140  19.2744  24.2732

          k = 0.1250 0.3750-0.5000 (  2300 PWs)   bands (ev):

   -70.5292 -36.6562 -36.6512 -36.6274 -32.7864 -32.7861 -32.7840 -32.7837
   -32.7778   2.5149   9.2579  10.2752  14.1290  14.2805  15.1861  15.3536
    16.2375  17.7558  18.6464  24.5618

          k = 0.1250-0.5000-0.5000 (  2324 PWs)   bands (ev):

   -70.5290 -36.6559 -36.6559 -36.6270 -32.7869 -32.7857 -32.7842 -32.7842
   -32.7768   2.7637   9.6892   9.6892  13.7968  14.5462  15.1929  15.1929
    16.2362  17.5673  18.1561  24.9442

          k = 0.2500 0.2500 0.2500 (  2292 PWs)   bands (ev):

   -70.5302 -36.6408 -36.6408 -36.6408 -32.7846 -32.7846 -32.7839 -32.7835
   -32.7835   1.5558  11.2358  11.2358  11.4700  14.9519  14.9519  15.7821
    16.8391  16.8391  21.9979  24.2429

          k = 0.2500 0.2500 0.3750 (  2313 PWs)   bands (ev):

   -70.5295 -36.6519 -36.6400 -36.6398 -32.7850 -32.7846 -32.7842 -32.7836
   -32.7809   2.1481   9.6381  11.3440  12.2731  14.8594  15.1224  15.4675
    16.4731  17.5521  20.9979  22.1885

          k = 0.2500 0.2500-0.5000 (  2314 PWs)   bands (ev):

   -70.5292 -36.6565 -36.6397 -36.6392 -32.7855 -32.7846 -32.7844 -32.7836
   -32.7794   2.4530   8.9456  11.3858  12.8250  14.8411  14.9481  15.3856
    16.3348  17.9922  20.5810  21.2759

          k = 0.2500 0.3750 0.3750 (  2299 PWs)   bands (ev):

   -70.5288 -36.6508 -36.6507 -36.6388 -32.7856 -32.7843 -32.7843 -32.7827
   -32.7790   2.7115  10.1174  10.1543  12.2575  14.8276  15.3111  15.3579
    16.5241  17.5770  19.7095  22.0507

          k = 0.2500 0.3750-0.5000 (  2316 PWs)   bands (ev):

   -70.5285 -36.6554 -36.6504 -36.6385 -32.7860 -32.7847 -32.7844 -32.7824
   -32.7777   2.9991   9.5028  10.3501  12.4643  14.6749  15.3508  15.5243
    16.3437  17.8848  18.9384  21.7167

          k = 0.2500-0.5000-0.5000 (  2300 PWs)   bands (ev):

   -70.5282 -36.6548 -36.6548 -36.6381 -32.7862 -32.7847 -32.7847 -32.7819
   -32.7766   3.2764   9.7709   9.7709  12.4450  14.5822  15.6814  15.6814
    16.2484  17.7988  18.1621  22.1805

          k = 0.3750 0.3750 0.3750 (  2314 PWs)   bands (ev):

   -70.5281 -36.6500 -36.6500 -36.6498 -32.7855 -32.7849 -32.7849 -32.7790
   -32.7790   3.3093  10.2426  10.2426  10.9101  15.3284  15.5234  15.5234
    17.1712  17.1712  20.1391  20.4692

          k = 0.3750 0.3750-0.5000 (  2320 PWs)   bands (ev):

   -70.5278 -36.6545 -36.6497 -36.6495 -32.7858 -32.7852 -32.7850 -32.7790
   -32.7774   3.6204   9.7473  10.2773  10.8997  15.4972  15.5856  16.1314
    16.5006  17.9146  19.1709  19.6577

          k = 0.3750-0.5000-0.5000 (  2308 PWs)   bands (ev):

   -70.5275 -36.6540 -36.6540 -36.6493 -32.7857 -32.7852 -32.7852 -32.7782
   -32.7766   3.9482   9.8474   9.8474  10.6415  15.6409  16.2602  16.5824
    16.5824  17.8841  18.1078  19.8307

          k =-0.5000-0.5000-0.5000 (  2320 PWs)   bands (ev):

   -70.5273 -36.6538 -36.6538 -36.6538 -32.7855 -32.7855 -32.7855 -32.7766
   -32.7766   4.3133   9.8775   9.8775   9.8775  16.2651  16.2651  17.9063
    17.9063  17.9063  18.0122  18.0122

     the Fermi energy is    16.1842 ev

!    total energy              =    -731.01944698 Ry
     estimated scf accuracy    <          5.3E-10 Ry

     convergence has been achieved in   3 iterations

     Forces acting on atoms (cartesian axes, Ry/au):

     atom    1 type  2   force =     0.00000000    0.00000000    0.00000000
     atom    2 type  1   force =     0.00000000    0.00000000    0.00000000

     Total force =     0.000000     Total SCF correction =     0.000000


     Computing stress (Cartesian axis) and pressure

          total   stress  (Ry/bohr**3)                   (kbar)     P=      -64.24
  -0.00043670   0.00000000   0.00000000          -64.24        0.00        0.00
   0.00000000  -0.00043670   0.00000000            0.00      -64.24        0.00
   0.00000000   0.00000000  -0.00043670            0.00        0.00      -64.24


     Entering Dynamics:    iteration =    50
                           time      =   0.0484 pico-seconds


ATOMIC_POSITIONS (angstrom)
Fe            0.0000000000        0.0000000000        0.0000000000
Se            1.5220010000        1.5220010000        1.5220010000


     kinetic energy (Ekin) =           0.00000000 Ry
     temperature           =           0.00000000 K 
     Ekin + Etot (const)   =        -731.01944698 Ry
     Ions kinetic stress =            0.00 (kbar)
                                      0.00           0.00           0.00
                                      0.00           0.00           0.00
                                      0.00           0.00           0.00



     Linear momentum :    0.0000000000    0.0000000000    0.0000000000

     The maximum number of steps has been reached.

     End of molecular dynamics calculation

     diffusion coefficients :
     atom     1   D =       0.00000000 cm^2/s
     atom     2   D =       0.00000000 cm^2/s

     < D > =       0.00000000 cm^2/s

     Writing all to output data dir ./work/try_0/calculation_try_0.save/

     init_run     :      0.97s CPU      1.03s WALL (       1 calls)
     electrons    :    202.50s CPU    218.03s WALL (      50 calls)
     update_pot   :      7.07s CPU      7.26s WALL (      49 calls)
     forces       :      5.00s CPU      6.11s WALL (      50 calls)
     stress       :     26.65s CPU     26.92s WALL (      50 calls)

     Called by init_run:
     wfcinit      :      0.40s CPU      0.42s WALL (       1 calls)
     potinit      :      0.14s CPU      0.14s WALL (       1 calls)
     hinit0       :      0.40s CPU      0.41s WALL (       1 calls)

     Called by electrons:
     c_bands      :    147.46s CPU    159.68s WALL (     150 calls)
     sum_band     :     38.26s CPU     40.50s WALL (     150 calls)
     v_of_rho     :      1.43s CPU      1.50s WALL (     156 calls)
     newd         :      2.86s CPU      3.80s WALL (     156 calls)
     PAW_pot      :     26.14s CPU     26.76s WALL (     205 calls)
     mix_rho      :      0.06s CPU      0.07s WALL (     150 calls)

     Called by c_bands:
     init_us_2    :      4.94s CPU      5.58s WALL (   15750 calls)
     init_us_2:cp :      4.93s CPU      5.56s WALL (   15750 calls)
     cegterg      :    140.14s CPU    152.13s WALL (    5250 calls)

     Called by *egterg:
     cdiaghg      :      4.57s CPU      4.94s WALL (   13468 calls)
     h_psi        :    115.63s CPU    120.47s WALL (   16758 calls)
     s_psi        :      3.42s CPU      4.82s WALL (   16758 calls)
     g_psi        :      0.36s CPU      0.37s WALL (   11473 calls)

     Called by h_psi:
     h_psi:calbec :      4.54s CPU      6.10s WALL (   16758 calls)
     vloc_psi     :    106.85s CPU    107.99s WALL (   16758 calls)
     add_vuspsi   :      3.83s CPU      5.65s WALL (   16758 calls)

     General routines
     calbec       :      9.19s CPU     12.25s WALL (   32473 calls)
     fft          :      1.10s CPU      1.10s WALL (    3059 calls)
     ffts         :      0.05s CPU      0.05s WALL (     150 calls)
     fftw         :    116.41s CPU    117.63s WALL (  587146 calls)

     Parallel routines

     PWSCF        :   4m13.22s CPU   4m31.18s WALL


   This run was terminated on:  16:58:50  30Dec2024            

=------------------------------------------------------------------------------=
   JOB DONE.
=------------------------------------------------------------------------------=
