
     Program PWSCF v.7.1 starts on 29Dec2024 at 17:47:34 

     This program is part of the open-source Quantum ESPRESSO suite
     for quantum simulation of materials; please cite
         "P. Giannozzi et al., J. Phys.:Condens. Matter 21 395502 (2009);
         "P. Giannozzi et al., J. Phys.:Condens. Matter 29 465901 (2017);
         "P. Giannozzi et al., J. Chem. Phys. 152 154105 (2020);
          URL http://www.quantum-espresso.org", 
     in publications or presentations arising from this work. More details at
     http://www.quantum-espresso.org/quote

     Parallel version (MPI), running on     1 processors

     MPI processes distributed on     1 nodes
     0 MiB available memory on the printing compute node when the environment starts

     Waiting for input...
     Reading input from standard input
Warning: card &CELL ignored
Warning: card / ignored

     Current dimensions of program PWSCF are:
     Max number of different atomic species (ntypx) = 10
     Max number of k-points (npk) =  40000
     Max angular momentum in pseudopotentials (lmaxx) =  4
     Message from routine iosys:
     BEWARE:  force calculation with tetrahedra (not recommanded)
     Message from routine iosys:
     BEWARE: stress calculation with tetrahedra (not recommanded)
     file Fe.pbe-spn-kjpaw_psl.1.0.0.UPF: wavefunction(s)  3P 3D renormalized
     file Se.pbe-dn-kjpaw_psl.1.0.0.UPF: wavefunction(s)  4S 4P 3D renormalized

     Subspace diagonalization in iterative solution of the eigenvalue problem:
     a serial algorithm will be used


     G-vector sticks info
     --------------------
     sticks:   dense  smooth     PW     G-vecs:    dense   smooth      PW
     Sum         401     317    109                 5887     4169     847

     Using Slab Decomposition



     bravais-lattice index     =            0
     lattice parameter (alat)  =       5.7523  a.u.
     unit-cell volume          =     190.3406 (a.u.)^3
     number of atoms/cell      =            2
     number of atomic types    =            2
     number of electrons       =        32.00
     number of Kohn-Sham states=           20
     kinetic-energy cutoff     =      30.0000  Ry
     charge density cutoff     =     150.0000  Ry
     scf convergence threshold =      1.0E-03
     mixing beta               =       0.7000
     number of iterations used =            8  plain     mixing
     energy convergence thresh.=      0.0E+00
     force convergence thresh. =      0.0E+00
     Exchange-correlation= SLA  PW   PBX  PBC
                           (   1   4   3   4   0   0   0)
     nstep                     =           50


     celldm(1)=   5.752330  celldm(2)=   0.000000  celldm(3)=   0.000000
     celldm(4)=   0.000000  celldm(5)=   0.000000  celldm(6)=   0.000000

     crystal axes: (cart. coord. in units of alat)
               a(1) = (   1.000000   0.000000   0.000000 )  
               a(2) = (  -0.000000   1.000000   0.000000 )  
               a(3) = (   0.000000   0.000000   1.000000 )  

     reciprocal axes: (cart. coord. in units 2 pi/alat)
               b(1) = (  1.000000  0.000000 -0.000000 )  
               b(2) = (  0.000000  1.000000  0.000000 )  
               b(3) = (  0.000000 -0.000000  1.000000 )  


     PseudoPot. # 1 for Fe read from file:
     ./pseudo/Fe.pbe-spn-kjpaw_psl.1.0.0.UPF
     MD5 check sum: fc81f059e5c5069939230b1155715ae8
     Pseudo is Projector augmented-wave + core cor, Zval = 16.0
     Generated using &quot;atomic&quot; code by A. Dal Corso  v.6.3
     Shape of augmentation charge: PSQ
     Using radial grid of 1191 points,  6 beta functions with: 
                l(1) =   0
                l(2) =   0
                l(3) =   1
                l(4) =   1
                l(5) =   2
                l(6) =   2
     Q(r) pseudized with 0 coefficients 


     PseudoPot. # 2 for Se read from file:
     ./pseudo/Se.pbe-dn-kjpaw_psl.1.0.0.UPF
     MD5 check sum: ac240dd2bae32a30e0bf3a38df9c8785
     Pseudo is Projector augmented-wave + core cor, Zval = 16.0
     Generated using &quot;atomic&quot; code by A. Dal Corso  v.6.3
     Shape of augmentation charge: PSQ
     Using radial grid of 1211 points,  6 beta functions with: 
                l(1) =   0
                l(2) =   0
                l(3) =   1
                l(4) =   1
                l(5) =   2
                l(6) =   2
     Q(r) pseudized with 0 coefficients 


     atomic species   valence    mass     pseudopotential
        Fe            16.00    55.84500     Fe( 1.00)
        Se            16.00    78.96000     Se( 1.00)

     No symmetry found



   Cartesian axes

     site n.     atom                  positions (alat units)
         1           Fe  tau(   1) = (   0.0000000   0.0000000   0.0000000  )
         2           Se  tau(   2) = (   0.5000000   0.5000000   0.5000000  )

     number of k points=    36 (tetrahedron method)
                       cart. coord. in units 2pi/alat
        k(    1) = (   0.0000000   0.0000000   0.0000000), wk =   0.0312500
        k(    2) = (   0.0000000   0.0000000   0.2500000), wk =   0.0625000
        k(    3) = (   0.0000000   0.0000000  -0.5000000), wk =   0.0312500
        k(    4) = (   0.0000000   0.2500000   0.0000000), wk =   0.0625000
        k(    5) = (   0.0000000   0.2500000   0.2500000), wk =   0.0625000
        k(    6) = (   0.0000000   0.2500000  -0.5000000), wk =   0.0625000
        k(    7) = (   0.0000000   0.2500000  -0.2500000), wk =   0.0625000
        k(    8) = (   0.0000000  -0.5000000   0.0000000), wk =   0.0312500
        k(    9) = (   0.0000000  -0.5000000   0.2500000), wk =   0.0625000
        k(   10) = (   0.0000000  -0.5000000  -0.5000000), wk =   0.0312500
        k(   11) = (   0.2500000   0.0000000   0.0000000), wk =   0.0625000
        k(   12) = (   0.2500000   0.0000000   0.2500000), wk =   0.0625000
        k(   13) = (   0.2500000   0.0000000  -0.5000000), wk =   0.0625000
        k(   14) = (   0.2500000   0.0000000  -0.2500000), wk =   0.0625000
        k(   15) = (   0.2500000   0.2500000   0.0000000), wk =   0.0625000
        k(   16) = (   0.2500000   0.2500000   0.2500000), wk =   0.0625000
        k(   17) = (   0.2500000   0.2500000  -0.5000000), wk =   0.0625000
        k(   18) = (   0.2500000   0.2500000  -0.2500000), wk =   0.0625000
        k(   19) = (   0.2500000  -0.5000000   0.0000000), wk =   0.0625000
        k(   20) = (   0.2500000  -0.5000000   0.2500000), wk =   0.0625000
        k(   21) = (   0.2500000  -0.5000000  -0.5000000), wk =   0.0625000
        k(   22) = (   0.2500000  -0.5000000  -0.2500000), wk =   0.0625000
        k(   23) = (   0.2500000  -0.2500000   0.0000000), wk =   0.0625000
        k(   24) = (   0.2500000  -0.2500000   0.2500000), wk =   0.0625000
        k(   25) = (   0.2500000  -0.2500000  -0.5000000), wk =   0.0625000
        k(   26) = (   0.2500000  -0.2500000  -0.2500000), wk =   0.0625000
        k(   27) = (  -0.5000000   0.0000000   0.0000000), wk =   0.0312500
        k(   28) = (  -0.5000000   0.0000000   0.2500000), wk =   0.0625000
        k(   29) = (  -0.5000000   0.0000000  -0.5000000), wk =   0.0312500
        k(   30) = (  -0.5000000   0.2500000   0.0000000), wk =   0.0625000
        k(   31) = (  -0.5000000   0.2500000   0.2500000), wk =   0.0625000
        k(   32) = (  -0.5000000   0.2500000  -0.5000000), wk =   0.0625000
        k(   33) = (  -0.5000000   0.2500000  -0.2500000), wk =   0.0625000
        k(   34) = (  -0.5000000  -0.5000000   0.0000000), wk =   0.0312500
        k(   35) = (  -0.5000000  -0.5000000   0.2500000), wk =   0.0625000
        k(   36) = (  -0.5000000  -0.5000000  -0.5000000), wk =   0.0312500

     Dense  grid:     5887 G-vectors     FFT dimensions: (  24,  24,  24)

     Smooth grid:     4169 G-vectors     FFT dimensions: (  24,  24,  24)

     Estimated max dynamical RAM per process >      29.84 MB

     Check: negative core charge=   -0.000042

     Initial potential from superposition of free atoms

     starting charge      31.9995, renormalised to      32.0000
     Starting wfcs are   19 randomized atomic wfcs +    1 random wfcs
     Checking if some PAW data can be deallocated... 

     total cpu time spent up to now is        0.7 secs

     Self-consistent Calculation

     iteration #  1     ecut=    30.00 Ry     beta= 0.70
     Davidson diagonalization with overlap
     ethr =  1.00E-02,  avg # of iterations =  4.4

     negative rho (up, down):  8.436E-03 0.000E+00

     total cpu time spent up to now is        1.3 secs

     total energy              =    -727.14730928 Ry
     estimated scf accuracy    <       0.70653015 Ry

     iteration #  2     ecut=    30.00 Ry     beta= 0.70
     Davidson diagonalization with overlap
     ethr =  2.21E-03,  avg # of iterations =  3.0

     negative rho (up, down):  7.272E-03 0.000E+00

     total cpu time spent up to now is        1.9 secs

     total energy              =    -726.43517260 Ry
     estimated scf accuracy    <       6.97724003 Ry

     iteration #  3     ecut=    30.00 Ry     beta= 0.70
     Davidson diagonalization with overlap
     ethr =  2.21E-03,  avg # of iterations =  2.9

     negative rho (up, down):  7.855E-03 0.000E+00

     total cpu time spent up to now is        2.4 secs

     total energy              =    -727.41444681 Ry
     estimated scf accuracy    <       0.45417152 Ry

     iteration #  4     ecut=    30.00 Ry     beta= 0.70
     Davidson diagonalization with overlap
     ethr =  1.42E-03,  avg # of iterations =  1.0

     negative rho (up, down):  8.794E-03 0.000E+00

     total cpu time spent up to now is        2.9 secs

     total energy              =    -727.45867348 Ry
     estimated scf accuracy    <       0.00403762 Ry

     iteration #  5     ecut=    30.00 Ry     beta= 0.70
     Davidson diagonalization with overlap
     ethr =  1.26E-05,  avg # of iterations =  2.8

     negative rho (up, down):  8.914E-03 0.000E+00

     total cpu time spent up to now is        3.4 secs

     End of self-consistent calculation

          k = 0.0000 0.0000 0.0000 (   515 PWs)   bands (ev):

   -74.0831 -38.3810 -38.3378 -38.3259 -33.9459 -33.9451 -33.9441 -33.4332
   -33.4317  -0.3808  14.8576  14.8953  14.9644  14.9722  15.0083  16.3332
    16.3457  16.3651  19.3146  24.1170

          k = 0.0000 0.0000 0.2500 (   526 PWs)   bands (ev):

   -74.1040 -38.6891 -38.4668 -38.4222 -34.1512 -34.1502 -33.9719 -33.9690
   -33.6183   0.3381  10.3239  14.2164  14.2283  14.9924  15.9631  16.3517
    17.4752  17.4918  21.1338  23.7621

          k = 0.0000 0.0000-0.5000 (   498 PWs)   bands (ev):

   -74.0462 -38.3602 -38.0403 -37.9956 -33.6181 -33.6169 -33.3780 -33.1248
   -33.1168   1.3872   7.5946  14.1232  14.1339  15.8671  17.5674  17.6081
    19.3662  19.3817  21.9154  25.7855

          k = 0.0000 0.2500 0.0000 (   526 PWs)   bands (ev):

   -74.1040 -38.7103 -38.4386 -38.4291 -34.1511 -34.1496 -33.9726 -33.9684
   -33.6189   0.3376  10.3273  14.2175  14.2195  15.0021  15.9521  16.3639
    17.4782  17.4814  21.1300  23.7616

          k = 0.0000 0.2500 0.2500 (   533 PWs)   bands (ev):

   -74.1169 -38.7004 -38.6598 -38.5135 -34.3211 -34.2979 -34.0810 -34.0704
   -33.7501   1.0043  10.6970  11.1718  14.4374  15.1879  15.5467  16.0952
    16.6437  18.0603  22.3198  23.5551

          k = 0.0000 0.2500-0.5000 (   524 PWs)   bands (ev):

   -74.0972 -38.7076 -38.5210 -38.2915 -34.3127 -34.0965 -33.9303 -33.8635
   -33.5080   1.9412   8.4112  11.8224  14.4606  15.2786  16.1637  16.4292
    17.0341  18.3749  20.1747  23.9082

          k = 0.0000 0.2500-0.2500 (   533 PWs)   bands (ev):

   -74.1169 -38.7006 -38.6593 -38.5136 -34.3218 -34.2979 -34.0804 -34.0705
   -33.7502   1.0043  10.6953  11.1750  14.4267  15.1720  15.5673  16.0959
    16.6597  18.0497  22.3199  23.5521

          k = 0.0000-0.5000 0.0000 (   498 PWs)   bands (ev):

   -74.0461 -38.3810 -38.0122 -38.0027 -33.6178 -33.6162 -33.3776 -33.1255
   -33.1174   1.3855   7.5998  14.1230  14.1254  15.8776  17.5825  17.5934
    19.3677  19.3712  21.9073  25.7883

          k = 0.0000-0.5000 0.2500 (   524 PWs)   bands (ev):

   -74.0971 -38.7281 -38.4997 -38.2921 -34.3125 -34.0958 -33.9303 -33.8642
   -33.5081   1.9401   8.4169  11.8172  14.4524  15.2882  16.1764  16.4180
    17.0333  18.3702  20.1771  23.9037

          k = 0.0000-0.5000-0.5000 (   536 PWs)   bands (ev):

   -74.1231 -38.7675 -38.7266 -38.5550 -34.5861 -34.3933 -34.3924 -33.8262
   -33.6844   2.6922   9.7189   9.7271  14.0907  15.1463  15.1698  15.9490
    16.6214  17.3174  18.6543  26.8548

          k = 0.2500 0.0000 0.0000 (   526 PWs)   bands (ev):

   -74.1041 -38.6814 -38.4674 -38.4294 -34.1504 -34.1496 -33.9735 -33.9677
   -33.6196   0.3379  10.3255  14.2136  14.2261  14.9974  15.9604  16.3562
    17.4740  17.4895  21.1436  23.7547

          k = 0.2500 0.0000 0.2500 (   533 PWs)   bands (ev):

   -74.1170 -38.6747 -38.6600 -38.5390 -34.3220 -34.2972 -34.0811 -34.0695
   -33.7509   1.0045  10.6914  11.1784  14.4296  15.1760  15.5536  16.1061
    16.6591  18.0486  22.3210  23.5499

          k = 0.2500 0.0000-0.5000 (   524 PWs)   bands (ev):

   -74.0973 -38.7067 -38.4948 -38.3186 -34.3121 -34.0976 -33.9294 -33.8635
   -33.5086   1.9410   8.4122  11.8237  14.4560  15.2805  16.1641  16.4331
    17.0424  18.3667  20.1622  23.9129

          k = 0.2500 0.0000-0.2500 (   533 PWs)   bands (ev):

   -74.1170 -38.6742 -38.6606 -38.5390 -34.3216 -34.2972 -34.0814 -34.0699
   -33.7504   1.0044  10.6945  11.1762  14.4301  15.1765  15.5521  16.1057
    16.6575  18.0498  22.3187  23.5524

          k = 0.2500 0.2500 0.0000 (   533 PWs)   bands (ev):

   -74.1169 -38.6996 -38.6525 -38.5217 -34.3220 -34.2966 -34.0816 -34.0693
   -33.7510   1.0039  10.6967  11.1748  14.4362  15.1902  15.5489  16.0949
    16.6429  18.0563  22.3188  23.5534

          k = 0.2500 0.2500 0.2500 (   528 PWs)   bands (ev):

   -74.1044 -38.7163 -38.4962 -38.4517 -34.1679 -34.1668 -34.1120 -33.8186
   -33.8180   1.6466  11.4740  11.4782  11.5490  15.3092  15.3299  16.2463
    17.5154  17.5172  22.0920  24.1577

          k = 0.2500 0.2500-0.5000 (   532 PWs)   bands (ev):

   -74.1095 -38.6684 -38.5997 -38.5446 -34.2423 -34.0860 -34.0498 -34.0263
   -34.0098   2.5442   9.0582  11.6627  12.8791  15.2528  15.4308  15.9363
    16.5999  18.3478  20.7018  21.2067

          k = 0.2500 0.2500-0.2500 (   528 PWs)   bands (ev):

   -74.1043 -38.7357 -38.4824 -38.4460 -34.1682 -34.1668 -34.1118 -33.8183
   -33.8180   1.6464  11.4787  11.4795  11.5467  15.3026  15.3252  16.2342
    17.5267  17.5289  22.0914  24.1590

          k = 0.2500-0.5000 0.0000 (   524 PWs)   bands (ev):

   -74.0972 -38.7282 -38.4917 -38.3001 -34.3114 -34.0974 -33.9287 -33.8642
   -33.5093   1.9394   8.4173  11.8203  14.4545  15.2910  16.1766  16.4202
    17.0315  18.3644  20.1686  23.9043

          k = 0.2500-0.5000 0.2500 (   532 PWs)   bands (ev):

   -74.1095 -38.6889 -38.5696 -38.5542 -34.2418 -34.0866 -34.0497 -34.0256
   -34.0105   2.5431   9.0646  11.6621  12.8735  15.2624  15.4302  15.9203
    16.6004  18.3519  20.7009  21.2192

          k = 0.2500-0.5000-0.5000 (   536 PWs)   bands (ev):

   -74.1165 -38.7265 -38.6425 -38.6066 -34.4229 -34.2347 -34.0691 -34.0682
   -33.9923   3.3714   9.9355   9.9443  12.7207  14.6045  16.0122  16.0329
    16.5087  18.1120  18.2318  22.1665

          k = 0.2500-0.5000-0.2500 (   532 PWs)   bands (ev):

   -74.1095 -38.6895 -38.5712 -38.5519 -34.2417 -34.0866 -34.0494 -34.0259
   -34.0106   2.5430   9.0643  11.6622  12.8738  15.2638  15.4309  15.9219
    16.5984  18.3496  20.7046  21.2157

          k = 0.2500-0.2500 0.0000 (   533 PWs)   bands (ev):

   -74.1169 -38.6998 -38.6520 -38.5218 -34.3223 -34.2966 -34.0813 -34.0692
   -33.7513   1.0039  10.6925  11.1796  14.4266  15.1758  15.5687  16.0955
    16.6578  18.0459  22.3212  23.5486

          k = 0.2500-0.2500 0.2500 (   528 PWs)   bands (ev):

   -74.1042 -38.7639 -38.4535 -38.4464 -34.1676 -34.1668 -34.1114 -33.8187
   -33.8186   1.6465  11.4795  11.4833  11.5430  15.3059  15.3100  16.2213
    17.5397  17.5419  22.0872  24.1666

          k = 0.2500-0.2500-0.5000 (   532 PWs)   bands (ev):

   -74.1095 -38.6679 -38.5880 -38.5569 -34.2423 -34.0860 -34.0500 -34.0260
   -34.0098   2.5441   9.0593  11.6693  12.8760  15.2519  15.4157  15.9185
    16.6162  18.3647  20.6941  21.2149

          k = 0.2500-0.2500-0.2500 (   528 PWs)   bands (ev):

   -74.1043 -38.7367 -38.4862 -38.4412 -34.1679 -34.1669 -34.1121 -33.8185
   -33.8178   1.6465  11.4751  11.4821  11.5466  15.3034  15.3254  16.2351
    17.5260  17.5281  22.0904  24.1657

          k =-0.5000 0.0000 0.0000 (   498 PWs)   bands (ev):

   -74.0463 -38.3526 -38.0410 -38.0027 -33.6170 -33.6165 -33.3767 -33.1264
   -33.1181   1.3864   7.5968  14.1184  14.1313  15.8763  17.5734  17.6042
    19.3646  19.3792  21.9292  25.7895

          k =-0.5000 0.0000 0.2500 (   524 PWs)   bands (ev):

   -74.0974 -38.6990 -38.5024 -38.3189 -34.3118 -34.0960 -33.9294 -33.8651
   -33.5089   1.9405   8.4149  11.8204  14.4521  15.2833  16.1695  16.4299
    17.0436  18.3669  20.1649  23.9168

          k =-0.5000 0.0000-0.5000 (   536 PWs)   bands (ev):

   -74.1232 -38.7408 -38.7272 -38.5813 -34.5854 -34.3941 -34.3925 -33.8253
   -33.6851   2.6916   9.7233   9.7280  14.0819  15.1522  15.1560  15.9631
    16.6291  17.3128  18.6396  26.8577

          k =-0.5000 0.2500 0.0000 (   524 PWs)   bands (ev):

   -74.0973 -38.7000 -38.5205 -38.2997 -34.3113 -34.0965 -33.9287 -33.8651
   -33.5095   1.9399   8.4143  11.8222  14.4587  15.2842  16.1693  16.4281
    17.0336  18.3693  20.1689  23.9127

          k =-0.5000 0.2500 0.2500 (   532 PWs)   bands (ev):

   -74.1095 -38.6617 -38.5999 -38.5511 -34.2410 -34.0873 -34.0489 -34.0257
   -34.0114   2.5435   9.0625  11.6579  12.8780  15.2562  15.4342  15.9355
    16.5986  18.3459  20.6992  21.2043

          k =-0.5000 0.2500-0.5000 (   536 PWs)   bands (ev):

   -74.1164 -38.7548 -38.6146 -38.6060 -34.4236 -34.2340 -34.0699 -34.0683
   -33.9914   3.3711   9.9385   9.9450  12.7198  14.5912  16.0185  16.0230
    16.5233  18.0951  18.2391  22.1713

          k =-0.5000 0.2500-0.2500 (   532 PWs)   bands (ev):

   -74.1095 -38.6610 -38.5872 -38.5646 -34.2411 -34.0873 -34.0494 -34.0251
   -34.0114   2.5432   9.0635  11.6659  12.8748  15.2570  15.4166  15.9163
    16.6157  18.3629  20.6948  21.2102

          k =-0.5000-0.5000 0.0000 (   536 PWs)   bands (ev):

   -74.1231 -38.7667 -38.7193 -38.5633 -34.5849 -34.3941 -34.3931 -33.8246
   -33.6858   2.6900   9.7243   9.7294  14.0926  15.1493  15.1704  15.9501
    16.6173  17.3092  18.6475  27.0874

          k =-0.5000-0.5000 0.2500 (   536 PWs)   bands (ev):

   -74.1164 -38.7335 -38.6424 -38.5995 -34.4242 -34.2334 -34.0698 -34.0690
   -33.9907   3.3699   9.9417   9.9465  12.7133  14.6030  16.0145  16.0342
    16.5105  18.1029  18.2287  22.1654

          k =-0.5000-0.5000-0.5000 (   552 PWs)   bands (ev):

   -74.1421 -38.8847 -38.8415 -38.8296 -34.5187 -34.5172 -34.3355 -34.3348
   -34.3338   4.3747  10.0644  10.0721  10.0774  16.0789  16.0954  17.8358
    17.8616  17.9234  17.9373  17.9617

     the Fermi energy is    16.6528 ev

!    total energy              =    -727.45936895 Ry
     estimated scf accuracy    <       0.00057071 Ry

     convergence has been achieved in   5 iterations

     negative rho (up, down):  8.914E-03 0.000E+00

     Forces acting on atoms (cartesian axes, Ry/au):

     atom    1 type  1   force =    -0.00969455    0.00032132    0.00013892
     atom    2 type  2   force =     0.00969455   -0.00032132   -0.00013892

     Total force =     0.013719     Total SCF correction =     0.003887
     SCF correction compared to forces is large: reduce conv_thr to get better values


     Computing stress (Cartesian axis) and pressure


     negative rho (up, down):  8.914E-03 0.000E+00
          total   stress  (Ry/bohr**3)                   (kbar)     P=   -13086.66
  -0.08884220   0.00030399  -0.00009385       -13069.14       44.72      -13.81
   0.00030399  -0.08913301   0.00032972           44.72   -13111.92       48.50
  -0.00009385   0.00032972  -0.08890881          -13.81       48.50   -13078.94


     Molecular Dynamics Calculation

     Starting temperature  =    10.00 K

     temperature is set once at start

     mass Fe               =    55.84
     mass Se               =    78.96
     Time step             =    20.00 a.u.,  0.9676 femto-seconds

     Entering Dynamics:    iteration =     1
                           time      =   0.0010 pico-seconds


ATOMIC_POSITIONS (angstrom)
Fe            0.0002353363       -0.0003875890       -0.0001697057
Se            1.5218345568        1.5222751250        1.5221210255


     kinetic energy (Ekin) =           0.00009500 Ry
     temperature           =          10.00000000 K 
     Ekin + Etot (const)   =        -727.45927395 Ry
     Ions kinetic stress =            0.05 (kbar)
                                      0.04          -0.06          -0.03
                                     -0.06           0.09           0.04
                                     -0.03           0.04           0.02



     Linear momentum :   -0.0000000000    0.0000000000    0.0000000000

     Writing config-only to output data dir ./work/try_0/calculation_try_0.save/
     NEW-OLD atomic charge density approx. for the potential

     Check: negative core charge=   -0.000042

     negative rho (up, down):  8.914E-03 0.000E+00

     total cpu time spent up to now is        3.9 secs

     Self-consistent Calculation

     iteration #  1     ecut=    30.00 Ry     beta= 0.70
     Davidson diagonalization with overlap
     ethr =  1.00E-06,  avg # of iterations =  4.3

     negative rho (up, down):  9.061E-03 0.000E+00

     total cpu time spent up to now is        4.6 secs

     total energy              =    -727.45526847 Ry
     estimated scf accuracy    <       0.00691545 Ry

     iteration #  2     ecut=    30.00 Ry     beta= 0.70
     Davidson diagonalization with overlap
     ethr =  2.16E-05,  avg # of iterations =  3.1

     negative rho (up, down):  8.914E-03 0.000E+00

     total cpu time spent up to now is        5.3 secs

     total energy              =    -727.44660942 Ry
     estimated scf accuracy    <       0.10631225 Ry

     iteration #  3     ecut=    30.00 Ry     beta= 0.70
     Davidson diagonalization with overlap
     ethr =  2.16E-05,  avg # of iterations =  3.2

     negative rho (up, down):  8.963E-03 0.000E+00

     total cpu time spent up to now is        5.8 secs

     End of self-consistent calculation

          k = 0.0000 0.0000 0.0000 (   515 PWs)   bands (ev):

   -74.0076 -38.3213 -38.2610 -38.2446 -34.0149 -34.0137 -34.0119 -33.5021
   -33.5002  -0.3996  14.8792  14.9274  14.9462  14.9605  15.0078  16.3825
    16.4025  16.4305  19.3146  24.1298

          k = 0.0000 0.0000 0.2500 (   526 PWs)   bands (ev):

   -74.0285 -38.6172 -38.3996 -38.3447 -34.2194 -34.2181 -34.0403 -34.0378
   -33.6868   0.3182  10.3164  14.2281  14.2410  15.0355  16.0088  16.4080
    17.4998  17.5203  21.1369  23.7651

          k = 0.0000 0.0000-0.5000 (   498 PWs)   bands (ev):

   -73.9707 -38.2891 -37.9748 -37.9193 -33.6851 -33.6840 -33.4459 -33.1926
   -33.1852   1.3645   7.5884  14.1356  14.1474  15.9137  17.6206  17.6678
    19.3880  19.4065  21.9157  23.3988

          k = 0.0000 0.2500 0.0000 (   526 PWs)   bands (ev):

   -74.0284 -38.6426 -38.3639 -38.3548 -34.2191 -34.2167 -34.0417 -34.0365
   -33.6883   0.3173  10.3237  14.2273  14.2294  15.0488  15.9939  16.4247
    17.5031  17.5060  21.1316  23.7628

          k = 0.0000 0.2500 0.2500 (   533 PWs)   bands (ev):

   -74.0413 -38.6393 -38.5785 -38.4391 -34.3897 -34.3666 -34.1487 -34.1386
   -33.8188   0.9829  10.6923  11.1652  14.4554  15.2408  15.5963  16.1435
    16.6852  18.0847  22.3213  23.5650

          k = 0.0000 0.2500-0.5000 (   524 PWs)   bands (ev):

   -74.0216 -38.6363 -38.4494 -38.2180 -34.3815 -34.1643 -33.9985 -33.9316
   -33.5769   1.9175   8.4034  11.8179  14.4865  15.3230  16.2155  16.4863
    17.0787  18.3814  20.1907  23.9060

          k = 0.0000 0.2500-0.2500 (   533 PWs)   bands (ev):

   -74.0413 -38.6401 -38.5774 -38.4392 -34.3904 -34.3666 -34.1482 -34.1382
   -33.8194   0.9829  10.6910  11.1689  14.4390  15.2164  15.6295  16.1442
    16.7095  18.0664  22.3229  23.5593

          k = 0.0000-0.5000 0.0000 (   498 PWs)   bands (ev):

   -73.9707 -38.3140 -37.9394 -37.9295 -33.6848 -33.6824 -33.4447 -33.1943
   -33.1868   1.3614   7.5988  14.1329  14.1359  15.9284  17.6422  17.6484
    19.3894  19.3916  21.9003  23.3926

          k = 0.0000-0.5000 0.2500 (   524 PWs)   bands (ev):

   -74.0216 -38.6606 -38.4238 -38.2190 -34.3812 -34.1627 -33.9985 -33.9332
   -33.5772   1.9154   8.4145  11.8078  14.4747  15.3350  16.2334  16.4730
    17.0772  18.3747  20.1947  23.8972

          k = 0.0000-0.5000-0.5000 (   536 PWs)   bands (ev):

   -74.0475 -38.7064 -38.6446 -38.4799 -34.6550 -34.4623 -34.4606 -33.8945
   -33.7535   2.6663   9.7051   9.7196  14.1226  15.1930  15.2299  16.0090
    16.6698  17.2895  18.6933  26.8467

          k = 0.2500 0.0000 0.0000 (   526 PWs)   bands (ev):

   -74.0286 -38.6091 -38.4047 -38.3477 -34.2187 -34.2171 -34.0419 -34.0368
   -33.6881   0.3182  10.3154  14.2243  14.2416  15.0392  16.0078  16.4129
    17.4964  17.5204  21.1481  23.7591

          k = 0.2500 0.0000 0.2500 (   533 PWs)   bands (ev):

   -74.0414 -38.6079 -38.5846 -38.4643 -34.3909 -34.3668 -34.1479 -34.1377
   -33.8194   0.9838  10.6841  11.1704  14.4458  15.2204  15.6079  16.1566
    16.7095  18.0701  22.3215  23.5607

          k = 0.2500 0.0000-0.5000 (   524 PWs)   bands (ev):

   -74.0218 -38.6342 -38.4225 -38.2470 -34.3817 -34.1648 -33.9983 -33.9316
   -33.5767   1.9180   8.4052  11.8148  14.4805  15.3205  16.2163  16.4900
    17.0902  18.3755  20.1762  23.9144

          k = 0.2500 0.0000-0.2500 (   533 PWs)   bands (ev):

   -74.0414 -38.6069 -38.5858 -38.4643 -34.3893 -34.3668 -34.1495 -34.1387
   -33.8184   0.9837  10.6853  11.1696  14.4471  15.2222  15.6054  16.1562
    16.7068  18.0725  22.3183  23.5638

          k = 0.2500 0.2500 0.0000 (   533 PWs)   bands (ev):

   -74.0414 -38.6358 -38.5754 -38.4458 -34.3901 -34.3653 -34.1501 -34.1374
   -33.8196   0.9828  10.6892  11.1690  14.4539  15.2402  15.6010  16.1438
    16.6866  18.0808  22.3191  23.5638

          k = 0.2500 0.2500 0.2500 (   528 PWs)   bands (ev):

   -74.0288 -38.6336 -38.4371 -38.3767 -34.2374 -34.2349 -34.1804 -33.8865
   -33.8862   1.6245  11.4683  11.4721  11.5399  15.3570  15.3870  16.3042
    17.5582  17.5598  22.0901  24.1660

          k = 0.2500 0.2500-0.5000 (   532 PWs)   bands (ev):

   -74.0339 -38.6017 -38.5281 -38.4660 -34.3115 -34.1547 -34.1175 -34.0953
   -34.0776   2.5200   9.0502  11.6638  12.8626  15.2986  15.4775  15.9919
    16.6553  18.3858  20.7157  21.2230

          k = 0.2500 0.2500-0.2500 (   528 PWs)   bands (ev):

   -74.0288 -38.6661 -38.4170 -38.3640 -34.2372 -34.2353 -34.1811 -33.8861
   -33.8856   1.6243  11.4731  11.4758  11.5362  15.3483  15.3796  16.2852
    17.5757  17.5773  22.0882  24.1694

          k = 0.2500-0.5000 0.0000 (   524 PWs)   bands (ev):

   -74.0217 -38.6602 -38.4170 -38.2263 -34.3800 -34.1645 -33.9967 -33.9332
   -33.5784   1.9150   8.4153  11.8091  14.4771  15.3362  16.2338  16.4750
    17.0750  18.3708  20.1851  23.8993

          k = 0.2500-0.5000 0.2500 (   532 PWs)   bands (ev):

   -74.0339 -38.6241 -38.4939 -38.4777 -34.3102 -34.1562 -34.1180 -34.0929
   -34.0791   2.5179   9.0619  11.6599  12.8555  15.3119  15.4781  15.9682
    16.6580  18.3911  20.7170  21.2392

          k = 0.2500-0.5000-0.5000 (   536 PWs)   bands (ev):

   -74.0409 -38.6569 -38.5771 -38.5243 -34.4922 -34.3034 -34.1378 -34.1361
   -34.0604   3.3446   9.9258   9.9404  12.7149  14.6463  16.0491  16.0818
    16.5683  18.1429  18.2693  22.1871

          k = 0.2500-0.5000-0.2500 (   532 PWs)   bands (ev):

   -74.0339 -38.6253 -38.4936 -38.4769 -34.3100 -34.1562 -34.1165 -34.0945
   -34.0793   2.5178   9.0617  11.6610  12.8540  15.3131  15.4801  15.9720
    16.6539  18.3877  20.7211  21.2360

          k = 0.2500-0.2500 0.0000 (   533 PWs)   bands (ev):

   -74.0414 -38.6365 -38.5743 -38.4459 -34.3917 -34.3653 -34.1486 -34.1365
   -33.8206   0.9828  10.6878  11.1721  14.4409  15.2206  15.6286  16.1440
    16.7059  18.0650  22.3231  23.5574

          k = 0.2500-0.2500 0.2500 (   528 PWs)   bands (ev):

   -74.0286 -38.7037 -38.3767 -38.3663 -34.2360 -34.2348 -34.1790 -33.8881
   -33.8874   1.6243  11.4739  11.4793  11.5348  15.3522  15.3587  16.2659
    17.5938  17.5954  22.0849  24.1775

          k = 0.2500-0.2500-0.5000 (   532 PWs)   bands (ev):

   -74.0339 -38.6004 -38.5158 -38.4797 -34.3116 -34.1547 -34.1187 -34.0939
   -34.0774   2.5198   9.0513  11.6703  12.8620  15.2980  15.4579  15.9666
    16.6771  18.4091  20.7065  21.2317

          k = 0.2500-0.2500-0.2500 (   528 PWs)   bands (ev):

   -74.0288 -38.6612 -38.4245 -38.3614 -34.2363 -34.2361 -34.1805 -33.8867
   -33.8859   1.6244  11.4704  11.4757  11.5376  15.3492  15.3822  16.2890
    17.5716  17.5740  22.0884  24.1786

          k =-0.5000 0.0000 0.0000 (   498 PWs)   bands (ev):

   -73.9709 -38.2812 -37.9799 -37.9223 -33.6844 -33.6830 -33.4445 -33.1945
   -33.1866   1.3647   7.5871  14.1301  14.1479  15.9214  17.6242  17.6673
    19.3845  19.4067  21.9346  23.3942

          k =-0.5000 0.0000 0.2500 (   524 PWs)   bands (ev):

   -74.0219 -38.6263 -38.4307 -38.2467 -34.3814 -34.1629 -33.9983 -33.9334
   -33.5770   1.9182   8.4042  11.8147  14.4773  15.3225  16.2211  16.4875
    17.0919  18.3754  20.1781  23.9213

          k =-0.5000 0.0000-0.5000 (   536 PWs)   bands (ev):

   -74.0476 -38.6727 -38.6519 -38.5065 -34.6551 -34.4628 -34.4603 -33.8943
   -33.7534   2.6679   9.7132   9.7134  14.0998  15.2031  15.2076  16.0258
    16.6823  17.2911  18.6792  26.8579

          k =-0.5000 0.2500 0.0000 (   524 PWs)   bands (ev):

   -74.0218 -38.6281 -38.4508 -38.2249 -34.3800 -34.1643 -33.9967 -33.9334
   -33.5784   1.9171   8.4031  11.8190  14.4857  15.3261  16.2207  16.4858
    17.0782  18.3775  20.1830  23.9149

          k =-0.5000 0.2500 0.2500 (   532 PWs)   bands (ev):

   -74.0339 -38.5939 -38.5334 -38.4685 -34.3102 -34.1560 -34.1171 -34.0939
   -34.0794   2.5199   9.0508  11.6591  12.8650  15.3008  15.4818  15.9936
    16.6529  18.3820  20.7125  21.2168

          k =-0.5000 0.2500-0.5000 (   536 PWs)   bands (ev):

   -74.0408 -38.6894 -38.5375 -38.5310 -34.4920 -34.3036 -34.1383 -34.1358
   -34.0602   3.3458   9.9307   9.9334  12.7208  14.6219  16.0612  16.0657
    16.5858  18.1232  18.2816  22.1867

          k =-0.5000 0.2500-0.2500 (   532 PWs)   bands (ev):

   -74.0339 -38.5923 -38.5204 -38.4833 -34.3103 -34.1560 -34.1174 -34.0934
   -34.0792   2.5195   9.0522  11.6696  12.8623  15.3018  15.4555  15.9626
    16.6793  18.4097  20.7051  21.2259

          k =-0.5000-0.5000 0.0000 (   536 PWs)   bands (ev):

   -74.0476 -38.7027 -38.6415 -38.4869 -34.6536 -34.4631 -34.4616 -33.8926
   -33.7549   2.6650   9.7086   9.7225  14.1192  15.1980  15.2285  16.0107
    16.6658  17.2837  18.6868  26.8452

          k =-0.5000-0.5000 0.2500 (   536 PWs)   bands (ev):

   -74.0409 -38.6650 -38.5718 -38.5213 -34.4935 -34.3021 -34.1386 -34.1372
   -34.0586   3.3436   9.9306   9.9419  12.7098  14.6407  16.0535  16.0822
    16.5708  18.1328  18.2663  22.1733

          k =-0.5000-0.5000-0.5000 (   552 PWs)   bands (ev):

   -74.0665 -38.8251 -38.7648 -38.7484 -34.5880 -34.5861 -34.4043 -34.4031
   -34.4014   4.3451  10.0612  10.0676  10.0776  16.1384  16.1578  17.8298
    17.8520  17.8777  17.9825  18.0132

     the Fermi energy is    16.7064 ev

!    total energy              =    -727.45919159 Ry
     estimated scf accuracy    <       0.00091384 Ry

     convergence has been achieved in   3 iterations

     negative rho (up, down):  8.963E-03 0.000E+00

     Forces acting on atoms (cartesian axes, Ry/au):

     atom    1 type  1   force =    -0.00339674    0.00155800   -0.00159621
     atom    2 type  2   force =     0.00339674   -0.00155800    0.00159621

     Total force =     0.005747     Total SCF correction =     0.007928
     SCF correction compared to forces is large: reduce conv_thr to get better values


     Computing stress (Cartesian axis) and pressure


     negative rho (up, down):  8.963E-03 0.000E+00
          total   stress  (Ry/bohr**3)                   (kbar)     P=   -13016.55
  -0.08836051   0.00038223  -0.00014035       -12998.28       56.23      -20.65
   0.00038223  -0.08871704   0.00045397           56.23   -13050.73       66.78
  -0.00014035   0.00045397  -0.08837667          -20.65       66.78   -13000.66


     Entering Dynamics:    iteration =     2
                           time      =   0.0019 pico-seconds


ATOMIC_POSITIONS (angstrom)
Fe            0.0004565469       -0.0007686989       -0.0003460494
Se            1.5216781041        1.5225446676        1.5222457458


     kinetic energy (Ekin) =           0.00008913 Ry
     temperature           =           9.38150238 K 
     Ekin + Etot (const)   =        -727.45910246 Ry
     Ions kinetic stress =            0.05 (kbar)
                                      0.03          -0.05          -0.02
                                     -0.05           0.09           0.04
                                     -0.02           0.04           0.02



     Linear momentum :    0.0000000000   -0.0000000000   -0.0000000000

     Writing config-only to output data dir ./work/try_0/calculation_try_0.save/
     NEW-OLD atomic charge density approx. for the potential

     Check: negative core charge=   -0.000042

     negative rho (up, down):  8.962E-03 0.000E+00

     total cpu time spent up to now is        6.3 secs

     Self-consistent Calculation

     iteration #  1     ecut=    30.00 Ry     beta= 0.70
     Davidson diagonalization with overlap
     ethr =  1.00E-06,  avg # of iterations =  4.8

     negative rho (up, down):  8.731E-03 0.000E+00

     total cpu time spent up to now is        7.0 secs

     total energy              =    -727.45104922 Ry
     estimated scf accuracy    <       0.01266877 Ry

     iteration #  2     ecut=    30.00 Ry     beta= 0.70
     Davidson diagonalization with overlap
     ethr =  3.96E-05,  avg # of iterations =  3.3

     negative rho (up, down):  8.909E-03 0.000E+00

     total cpu time spent up to now is        7.7 secs

     total energy              =    -727.42728437 Ry
     estimated scf accuracy    <       0.29099530 Ry

     iteration #  3     ecut=    30.00 Ry     beta= 0.70
     Davidson diagonalization with overlap
     ethr =  3.96E-05,  avg # of iterations =  3.2

     negative rho (up, down):  8.931E-03 0.000E+00

     total cpu time spent up to now is        8.3 secs

     total energy              =    -727.45938701 Ry
     estimated scf accuracy    <       0.00222071 Ry

     iteration #  4     ecut=    30.00 Ry     beta= 0.70
     Davidson diagonalization with overlap
     ethr =  6.94E-06,  avg # of iterations =  1.1

     negative rho (up, down):  8.934E-03 0.000E+00

     total cpu time spent up to now is        8.8 secs

     End of self-consistent calculation

          k = 0.0000 0.0000 0.0000 (   515 PWs)   bands (ev):

   -74.0908 -38.3625 -38.3562 -38.3461 -33.9972 -33.9956 -33.9946 -33.4833
   -33.4831  -0.3891  14.8496  14.8943  14.9594  14.9602  15.0030  16.3372
    16.3405  16.3441  19.3111  24.1132

          k = 0.0000 0.0000 0.2500 (   526 PWs)   bands (ev):

   -74.1117 -38.7034 -38.4535 -38.4416 -34.2012 -34.2006 -34.0234 -34.0193
   -33.6697   0.3284  10.3254  14.2097  14.2123  14.9962  15.9510  16.3489
    17.4719  17.4733  21.1264  23.7590

          k = 0.0000 0.0000-0.5000 (   498 PWs)   bands (ev):

   -74.0538 -38.3752 -38.0270 -38.0153 -33.6676 -33.6669 -33.4280 -33.1761
   -33.1681   1.3742   7.6004  14.1150  14.1187  15.8709  17.5674  17.5933
    19.3597  19.3614  21.9028  23.4047

          k = 0.0000 0.2500 0.0000 (   526 PWs)   bands (ev):

   -74.1117 -38.7021 -38.4553 -38.4412 -34.2023 -34.1999 -34.0235 -34.0190
   -33.6697   0.3287  10.3226  14.2093  14.2151  14.9934  15.9548  16.3486
    17.4705  17.4748  21.1273  23.7606

          k = 0.0000 0.2500 0.2500 (   533 PWs)   bands (ev):

   -74.1246 -38.6872 -38.6807 -38.5262 -34.3720 -34.3484 -34.1320 -34.1210
   -33.8010   0.9941  10.6933  11.1708  14.4210  15.1751  15.5498  16.0922
    16.6464  18.0420  22.3177  23.5484

          k = 0.0000 0.2500-0.5000 (   524 PWs)   bands (ev):

   -74.1048 -38.7215 -38.5152 -38.3038 -34.3632 -34.1466 -33.9805 -33.9150
   -33.5594   1.9279   8.4162  11.8128  14.4462  15.2845  16.1622  16.4184
    17.0270  18.3585  20.1759  23.8977

          k = 0.0000 0.2500-0.2500 (   533 PWs)   bands (ev):

   -74.1246 -38.6866 -38.6813 -38.5261 -34.3730 -34.3484 -34.1310 -34.1203
   -33.8017   0.9940  10.6951  11.1690  14.4224  15.1778  15.5472  16.0918
    16.6434  18.0430  22.3182  23.5485

          k = 0.0000-0.5000 0.0000 (   498 PWs)   bands (ev):

   -74.0538 -38.3739 -38.0288 -38.0148 -33.6687 -33.6662 -33.4281 -33.1757
   -33.1680   1.3753   7.5966  14.1147  14.1221  15.8678  17.5661  17.5972
    19.3586  19.3637  21.9069  23.4072

          k = 0.0000-0.5000 0.2500 (   524 PWs)   bands (ev):

   -74.1048 -38.7203 -38.5165 -38.3038 -34.3632 -34.1470 -33.9804 -33.9147
   -33.5594   1.9286   8.4122  11.8163  14.4474  15.2823  16.1613  16.4208
    17.0275  18.3582  20.1745  23.9001

          k = 0.0000-0.5000-0.5000 (   536 PWs)   bands (ev):

   -74.1307 -38.7540 -38.7480 -38.5672 -34.6368 -34.4444 -34.4434 -33.8764
   -33.7358   2.6783   9.7173   9.7224  14.0988  15.1487  15.1514  15.9456
    16.6152  17.3015  18.6479  26.8453

          k = 0.2500 0.0000 0.0000 (   526 PWs)   bands (ev):

   -74.1118 -38.6904 -38.4570 -38.4512 -34.2013 -34.2003 -34.0238 -34.0191
   -33.6700   0.3293  10.3163  14.2113  14.2142  14.9961  15.9569  16.3506
    17.4708  17.4736  21.1421  23.7568

          k = 0.2500 0.0000 0.2500 (   533 PWs)   bands (ev):

   -74.1247 -38.6851 -38.6712 -38.5378 -34.3740 -34.3481 -34.1306 -34.1194
   -33.8024   0.9945  10.6877  11.1725  14.4249  15.1797  15.5461  16.0922
    16.6451  18.0420  22.3169  23.5479

          k = 0.2500 0.0000-0.5000 (   524 PWs)   bands (ev):

   -74.1049 -38.7215 -38.5036 -38.3155 -34.3629 -34.1474 -33.9798 -33.9150
   -33.5597   1.9280   8.4177  11.8106  14.4481  15.2831  16.1631  16.4207
    17.0267  18.3556  20.1635  23.9038

          k = 0.2500 0.0000-0.2500 (   533 PWs)   bands (ev):

   -74.1246 -38.6854 -38.6709 -38.5379 -34.3716 -34.3481 -34.1330 -34.1210
   -33.8007   0.9945  10.6880  11.1733  14.4213  15.1752  15.5521  16.0928
    16.6489  18.0392  22.3142  23.5496

          k = 0.2500 0.2500 0.0000 (   533 PWs)   bands (ev):

   -74.1246 -38.6834 -38.6716 -38.5391 -34.3726 -34.3482 -34.1317 -34.1205
   -33.8015   0.9948  10.6873  11.1717  14.4240  15.1747  15.5486  16.0948
    16.6476  18.0421  22.3140  23.5505

          k = 0.2500 0.2500 0.2500 (   528 PWs)   bands (ev):

   -74.1120 -38.7432 -38.4723 -38.4690 -34.2187 -34.2174 -34.1621 -33.8697
   -33.8690   1.6361  11.4715  11.4744  11.5413  15.3067  15.3122  16.2277
    17.5189  17.5206  22.0857  24.1589

          k = 0.2500 0.2500-0.5000 (   532 PWs)   bands (ev):

   -74.1171 -38.6797 -38.5873 -38.5660 -34.2927 -34.1376 -34.1001 -34.0764
   -34.0612   2.5307   9.0633  11.6558  12.8652  15.2561  15.4229  15.9170
    16.5970  18.3437  20.6994  21.2147

          k = 0.2500 0.2500-0.2500 (   528 PWs)   bands (ev):

   -74.1120 -38.7431 -38.4775 -38.4638 -34.2193 -34.2176 -34.1631 -33.8686
   -33.8684   1.6359  11.4721  11.4755  11.5411  15.3058  15.3125  16.2252
    17.5205  17.5217  22.0863  24.1523

          k = 0.2500-0.5000 0.0000 (   524 PWs)   bands (ev):

   -74.1049 -38.7202 -38.5037 -38.3167 -34.3630 -34.1474 -33.9802 -33.9146
   -33.5596   1.9290   8.4140  11.8120  14.4493  15.2793  16.1624  16.4234
    17.0271  18.3574  20.1617  23.9082

          k = 0.2500-0.5000 0.2500 (   532 PWs)   bands (ev):

   -74.1172 -38.6784 -38.5898 -38.5649 -34.2929 -34.1375 -34.1015 -34.0754
   -34.0607   2.5316   9.0593  11.6552  12.8690  15.2517  15.4251  15.9205
    16.5975  18.3422  20.6967  21.2129

          k = 0.2500-0.5000-0.5000 (   536 PWs)   bands (ev):

   -74.1242 -38.7330 -38.6343 -38.6285 -34.4744 -34.2852 -34.1201 -34.1191
   -34.0424   3.3572   9.9343   9.9392  12.7096  14.6085  16.0133  16.0164
    16.5053  18.1114  18.2223  22.1569

          k = 0.2500-0.5000-0.2500 (   532 PWs)   bands (ev):

   -74.1171 -38.6784 -38.5854 -38.5692 -34.2927 -34.1375 -34.0991 -34.0778
   -34.0610   2.5314   9.0594  11.6599  12.8659  15.2535  15.4194  15.9146
    16.6017  18.3470  20.6980  21.2126

          k = 0.2500-0.2500 0.0000 (   533 PWs)   bands (ev):

   -74.1247 -38.6836 -38.6715 -38.5391 -34.3727 -34.3482 -34.1317 -34.1204
   -33.8015   0.9948  10.6855  11.1730  14.4240  15.1753  15.5493  16.0949
    16.6473  18.0416  22.3152  23.5493

          k = 0.2500-0.2500 0.2500 (   528 PWs)   bands (ev):

   -74.1120 -38.7409 -38.4779 -38.4657 -34.2182 -34.2172 -34.1614 -33.8703
   -33.8698   1.6361  11.4716  11.4726  11.5422  15.3079  15.3140  16.2290
    17.5165  17.5185  22.0857  24.1658

          k = 0.2500-0.2500-0.5000 (   532 PWs)   bands (ev):

   -74.1172 -38.6797 -38.5855 -38.5678 -34.2928 -34.1376 -34.1001 -34.0765
   -34.0611   2.5308   9.0634  11.6555  12.8648  15.2554  15.4237  15.9168
    16.5966  18.3448  20.6975  21.2164

          k = 0.2500-0.2500-0.2500 (   528 PWs)   bands (ev):

   -74.1120 -38.7485 -38.4716 -38.4643 -34.2193 -34.2181 -34.1637 -33.8680
   -33.8678   1.6360  11.4732  11.4759  11.5391  15.3069  15.3097  16.2234
    17.5219  17.5244  22.0847  24.1628

          k =-0.5000 0.0000 0.0000 (   498 PWs)   bands (ev):

   -74.0540 -38.3624 -38.0305 -38.0248 -33.6677 -33.6666 -33.4276 -33.1763
   -33.1683   1.3774   7.5883  14.1168  14.1196  15.8749  17.5745  17.5906
    19.3599  19.3628  21.9369  23.4060

          k =-0.5000 0.0000 0.2500 (   524 PWs)   bands (ev):

   -74.1050 -38.7086 -38.5165 -38.3155 -34.3628 -34.1471 -33.9798 -33.9153
   -33.5597   1.9300   8.4054  11.8201  14.4485  15.2823  16.1645  16.4202
    17.0305  18.3567  20.1624  23.9187

          k =-0.5000 0.0000-0.5000 (   536 PWs)   bands (ev):

   -74.1308 -38.7522 -38.7380 -38.5790 -34.6365 -34.4454 -34.4430 -33.8757
   -33.7361   2.6785   9.7153   9.7284  14.0864  15.1476  15.1537  15.9486
    16.6138  17.2996  18.6413  26.8505

          k =-0.5000 0.2500 0.0000 (   524 PWs)   bands (ev):

   -74.1050 -38.7086 -38.5153 -38.3168 -34.3629 -34.1467 -33.9802 -33.9153
   -33.5596   1.9304   8.4056  11.8180  14.4486  15.2807  16.1647  16.4204
    17.0303  18.3587  20.1620  23.9207

          k =-0.5000 0.2500 0.2500 (   532 PWs)   bands (ev):

   -74.1172 -38.6668 -38.5882 -38.5781 -34.2925 -34.1378 -34.0995 -34.0768
   -34.0615   2.5324   9.0535  11.6588  12.8724  15.2542  15.4175  15.9174
    16.6021  18.3462  20.6907  21.2025

          k =-0.5000 0.2500-0.5000 (   536 PWs)   bands (ev):

   -74.1241 -38.7446 -38.6326 -38.6185 -34.4747 -34.2849 -34.1211 -34.1187
   -34.0418   3.3574   9.9331   9.9427  12.7088  14.5952  16.0143  16.0204
    16.5094  18.0969  18.2237  22.1560

          k =-0.5000 0.2500-0.2500 (   532 PWs)   bands (ev):

   -74.1172 -38.6668 -38.5937 -38.5725 -34.2926 -34.1378 -34.1005 -34.0758
   -34.0614   2.5325   9.0533  11.6566  12.8744  15.2542  15.4208  15.9197
    16.5989  18.3438  20.6918  21.2010

          k =-0.5000-0.5000 0.0000 (   536 PWs)   bands (ev):

   -74.1308 -38.7504 -38.7385 -38.5803 -34.6366 -34.4444 -34.4437 -33.8761
   -33.7360   2.6795   9.7167   9.7249  14.0804  15.1500  15.1511  15.9515
    16.6144  17.3023  18.6412  26.8543

          k =-0.5000-0.5000 0.2500 (   536 PWs)   bands (ev):

   -74.1241 -38.7459 -38.6308 -38.6190 -34.4746 -34.2850 -34.1200 -34.1194
   -34.0421   3.3581   9.9341   9.9387  12.7118  14.5899  16.0162  16.0195
    16.5122  18.0956  18.2244  22.1715

          k =-0.5000-0.5000-0.5000 (   552 PWs)   bands (ev):

   -74.1498 -38.8663 -38.8599 -38.8498 -34.5692 -34.5689 -34.3868 -34.3852
   -34.3842   4.3597  10.0633  10.0643  10.0693  16.0794  16.0837  17.8239
    17.8284  17.8774  17.9239  17.9483

     the Fermi energy is    16.6457 ev

!    total energy              =    -727.45940649 Ry
     estimated scf accuracy    <       0.00027874 Ry

     convergence has been achieved in   4 iterations

     negative rho (up, down):  8.934E-03 0.000E+00

     Forces acting on atoms (cartesian axes, Ry/au):

     atom    1 type  1   force =    -0.01442537   -0.00076505   -0.00042342
     atom    2 type  2   force =     0.01442537    0.00076505    0.00042342

     Total force =     0.020438     Total SCF correction =     0.016909
     SCF correction compared to forces is large: reduce conv_thr to get better values


     Computing stress (Cartesian axis) and pressure


     negative rho (up, down):  8.934E-03 0.000E+00
          total   stress  (Ry/bohr**3)                   (kbar)     P=   -12922.60
  -0.08771144   0.00004908   0.00016405       -12902.80        7.22       24.13
   0.00004908  -0.08789809  -0.00011046            7.22   -12930.26      -16.25
   0.00016405  -0.00011046  -0.08792852           24.13      -16.25   -12934.73


     Entering Dynamics:    iteration =     3
                           time      =   0.0029 pico-seconds


ATOMIC_POSITIONS (angstrom)
Fe            0.0006177682       -0.0011529903       -0.0005241539
Se            1.5215640792        1.5228164603        1.5223717115


     kinetic energy (Ekin) =           0.00008318 Ry
     temperature           =           8.75521057 K 
     Ekin + Etot (const)   =        -727.45932331 Ry
     Ions kinetic stress =            0.04 (kbar)
                                      0.02          -0.04          -0.02
                                     -0.04           0.09           0.04
                                     -0.02           0.04           0.02



     Linear momentum :    0.0000000000   -0.0000000000   -0.0000000000

     Writing config-only to output data dir ./work/try_0/calculation_try_0.save/
     NEW-OLD atomic charge density approx. for the potential

     Check: negative core charge=   -0.000042

     negative rho (up, down):  8.932E-03 0.000E+00

     total cpu time spent up to now is        9.2 secs

     Self-consistent Calculation

     iteration #  1     ecut=    30.00 Ry     beta= 0.70
     Davidson diagonalization with overlap
     ethr =  1.00E-06,  avg # of iterations =  3.8

     negative rho (up, down):  9.149E-03 0.000E+00

     total cpu time spent up to now is        9.9 secs

     total energy              =    -727.45396680 Ry
     estimated scf accuracy    <       0.00839132 Ry

     iteration #  2     ecut=    30.00 Ry     beta= 0.70
     Davidson diagonalization with overlap
     ethr =  2.62E-05,  avg # of iterations =  3.2

     negative rho (up, down):  8.978E-03 0.000E+00

     total cpu time spent up to now is       10.5 secs

     total energy              =    -727.44244478 Ry
     estimated scf accuracy    <       0.15201864 Ry

     iteration #  3     ecut=    30.00 Ry     beta= 0.70
     Davidson diagonalization with overlap
     ethr =  2.62E-05,  avg # of iterations =  3.0

     negative rho (up, down):  8.974E-03 0.000E+00

     total cpu time spent up to now is       11.2 secs

     End of self-consistent calculation

          k = 0.0000 0.0000 0.0000 (   515 PWs)   bands (ev):

   -74.0458 -38.3422 -38.3032 -38.2884 -34.0173 -34.0169 -34.0150 -33.5050
   -33.5029  -0.3967  14.8636  14.9128  14.9524  14.9557  15.0069  16.3629
    16.3730  16.3959  19.3144  24.1233

          k = 0.0000 0.0000 0.2500 (   526 PWs)   bands (ev):

   -74.0667 -38.6738 -38.4013 -38.3929 -34.2218 -34.2199 -34.0448 -34.0393
   -33.6913   0.3198  10.3279  14.2164  14.2193  15.0296  15.9705  16.3946
    17.4879  17.4889  21.1279  23.7608

          k = 0.0000 0.0000-0.5000 (   498 PWs)   bands (ev):

   -74.0089 -38.3457 -37.9755 -37.9674 -33.6877 -33.6857 -33.4476 -33.1974
   -33.1896   1.3629   7.6051  14.1212  14.1258  15.9069  17.6119  17.6197
    19.3731  19.3747  21.8966  23.3970

          k = 0.0000 0.2500 0.0000 (   526 PWs)   bands (ev):

   -74.0667 -38.6513 -38.4313 -38.3855 -34.2222 -34.2216 -34.0427 -34.0411
   -33.6894   0.3209  10.3176  14.2191  14.2309  15.0153  15.9873  16.3797
    17.4854  17.5014  21.1332  23.7655

          k = 0.0000 0.2500 0.2500 (   533 PWs)   bands (ev):

   -74.0796 -38.6624 -38.6244 -38.4767 -34.3928 -34.3694 -34.1519 -34.1415
   -33.8217   0.9852  10.6931  11.1693  14.4304  15.2005  15.5938  16.1197
    16.6800  18.0546  22.3217  23.5547

          k = 0.0000 0.2500-0.5000 (   524 PWs)   bands (ev):

   -74.0598 -38.6918 -38.4627 -38.2556 -34.3840 -34.1657 -34.0012 -33.9364
   -33.5801   1.9168   8.4205  11.8060  14.4591  15.3171  16.2054  16.4451
    17.0542  18.3639  20.1901  23.8939

          k = 0.0000 0.2500-0.2500 (   533 PWs)   bands (ev):

   -74.0796 -38.6618 -38.6252 -38.4767 -34.3933 -34.3694 -34.1513 -34.1410
   -33.8220   0.9852  10.6944  11.1667  14.4388  15.2130  15.5767  16.1192
    16.6678  18.0639  22.3208  23.5573

          k = 0.0000-0.5000 0.0000 (   498 PWs)   bands (ev):

   -74.0090 -38.3236 -38.0056 -37.9598 -33.6883 -33.6875 -33.4491 -33.1953
   -33.1878   1.3670   7.5909  14.1253  14.1382  15.8909  17.5918  17.6402
    19.3728  19.3885  21.9146  23.4061

          k = 0.0000-0.5000 0.2500 (   524 PWs)   bands (ev):

   -74.0599 -38.6698 -38.4854 -38.2550 -34.3843 -34.1678 -34.0012 -33.9343
   -33.5796   1.9195   8.4053  11.8196  14.4708  15.3046  16.1889  16.4588
    17.0561  18.3694  20.1849  23.9044

          k = 0.0000-0.5000-0.5000 (   536 PWs)   bands (ev):

   -74.0857 -38.7289 -38.6916 -38.5175 -34.6578 -34.4655 -34.4634 -33.8972
   -33.7563   2.6676   9.7060   9.7248  14.1182  15.1736  15.1968  15.9791
    16.6456  17.2903  18.6740  26.8442

          k = 0.2500 0.0000 0.0000 (   526 PWs)   bands (ev):

   -74.0669 -38.6438 -38.4296 -38.3947 -34.2221 -34.2200 -34.0446 -34.0396
   -33.6909   0.3212  10.3141  14.2187  14.2283  15.0203  15.9869  16.3855
    17.4851  17.4979  21.1479  23.7593

          k = 0.2500 0.0000 0.2500 (   533 PWs)   bands (ev):

   -74.0797 -38.6626 -38.6158 -38.4853 -34.3941 -34.3680 -34.1523 -34.1396
   -33.8231   0.9854  10.6876  11.1716  14.4416  15.2182  15.5758  16.1181
    16.6650  18.0632  22.3197  23.5562

          k = 0.2500 0.0000-0.5000 (   524 PWs)   bands (ev):

   -74.0599 -38.6919 -38.4543 -38.2639 -34.3827 -34.1676 -33.9994 -33.9364
   -33.5814   1.9164   8.4217  11.8061  14.4625  15.3170  16.2062  16.4474
    17.0510  18.3599  20.1781  23.8979

          k = 0.2500 0.0000-0.2500 (   533 PWs)   bands (ev):

   -74.0797 -38.6632 -38.6150 -38.4854 -34.3937 -34.3680 -34.1527 -34.1400
   -33.8229   0.9852  10.6894  11.1726  14.4296  15.2004  15.5996  16.1184
    16.6815  18.0501  22.3192  23.5543

          k = 0.2500 0.2500 0.0000 (   533 PWs)   bands (ev):

   -74.0797 -38.6344 -38.6255 -38.5039 -34.3925 -34.3698 -34.1520 -34.1417
   -33.8213   0.9865  10.6838  11.1703  14.4363  15.1985  15.5803  16.1309
    16.6841  18.0577  22.3164  23.5590

          k = 0.2500 0.2500 0.2500 (   528 PWs)   bands (ev):

   -74.0670 -38.6984 -38.4459 -38.4096 -34.2395 -34.2386 -34.1834 -33.8896
   -33.8888   1.6268  11.4699  11.4745  11.5391  15.3290  15.3534  16.2625
    17.5482  17.5498  22.0869  24.1617

          k = 0.2500 0.2500-0.5000 (   532 PWs)   bands (ev):

   -74.0721 -38.6529 -38.5330 -38.5167 -34.3127 -34.1591 -34.1198 -34.0968
   -34.0825   2.5193   9.0674  11.6558  12.8544  15.2913  15.4582  15.9458
    16.6266  18.3667  20.7141  21.2318

          k = 0.2500 0.2500-0.2500 (   528 PWs)   bands (ev):

   -74.0670 -38.7027 -38.4471 -38.4041 -34.2398 -34.2382 -34.1834 -33.8895
   -33.8890   1.6267  11.4699  11.4764  11.5392  15.3279  15.3510  16.2579
    17.5517  17.5537  22.0876  24.1562

          k = 0.2500-0.5000 0.0000 (   524 PWs)   bands (ev):

   -74.0600 -38.6692 -38.4576 -38.2836 -34.3846 -34.1678 -34.0015 -33.9343
   -33.5793   1.9205   8.4078  11.8128  14.4673  15.2992  16.1904  16.4625
    17.0645  18.3669  20.1682  23.9165

          k = 0.2500-0.5000 0.2500 (   532 PWs)   bands (ev):

   -74.0722 -38.6300 -38.5649 -38.5077 -34.3145 -34.1573 -34.1214 -34.0974
   -34.0803   2.5222   9.0519  11.6597  12.8655  15.2747  15.4565  15.9652
    16.6287  18.3652  20.7062  21.2186

          k = 0.2500-0.5000-0.5000 (   536 PWs)   bands (ev):

   -74.0792 -38.6889 -38.6047 -38.5715 -34.4950 -34.3062 -34.1411 -34.1389
   -34.0632   3.3459   9.9256   9.9438  12.7102  14.6342  16.0320  16.0550
    16.5388  18.1321  18.2469  22.1587

          k = 0.2500-0.5000-0.2500 (   532 PWs)   bands (ev):

   -74.0722 -38.6297 -38.5531 -38.5199 -34.3145 -34.1573 -34.1209 -34.0978
   -34.0803   2.5219   9.0526  11.6677  12.8636  15.2766  15.4379  15.9428
    16.6473  18.3845  20.7032  21.2222

          k = 0.2500-0.2500 0.0000 (   533 PWs)   bands (ev):

   -74.0797 -38.6351 -38.6247 -38.5039 -34.3932 -34.3698 -34.1512 -34.1411
   -33.8219   0.9866  10.6829  11.1707  14.4362  15.1994  15.5808  16.1312
    16.6838  18.0569  22.3178  23.5575

          k = 0.2500-0.2500 0.2500 (   528 PWs)   bands (ev):

   -74.0671 -38.6794 -38.4575 -38.4171 -34.2395 -34.2379 -34.1826 -33.8903
   -33.8897   1.6269  11.4684  11.4714  11.5410  15.3348  15.3578  16.2728
    17.5375  17.5397  22.0881  24.1760

          k = 0.2500-0.2500-0.5000 (   532 PWs)   bands (ev):

   -74.0722 -38.6524 -38.5347 -38.5154 -34.3128 -34.1591 -34.1205 -34.0961
   -34.0824   2.5193   9.0674  11.6549  12.8549  15.2911  15.4585  15.9450
    16.6264  18.3679  20.7125  21.2331

          k = 0.2500-0.2500-0.2500 (   528 PWs)   bands (ev):

   -74.0669 -38.7237 -38.4199 -38.4100 -34.2398 -34.2379 -34.1833 -33.8897
   -33.8892   1.6267  11.4719  11.4782  11.5370  15.3331  15.3370  16.2468
    17.5616  17.5639  22.0854  24.1704

          k =-0.5000 0.0000 0.0000 (   498 PWs)   bands (ev):

   -74.0091 -38.3161 -38.0041 -37.9690 -33.6880 -33.6860 -33.4476 -33.1971
   -33.1893   1.3680   7.5864  14.1243  14.1342  15.9009  17.6046  17.6308
    19.3731  19.3847  21.9419  23.4017

          k =-0.5000 0.0000 0.2500 (   524 PWs)   bands (ev):

   -74.0601 -38.6626 -38.4842 -38.2636 -34.3827 -34.1678 -33.9994 -33.9361
   -33.5813   1.9198   8.4023  11.8219  14.4705  15.3077  16.1964  16.4559
    17.0558  18.3653  20.1746  23.9188

          k =-0.5000 0.0000-0.5000 (   536 PWs)   bands (ev):

   -74.0858 -38.7297 -38.6822 -38.5262 -34.6563 -34.4656 -34.4651 -33.8953
   -33.7579   2.6665   9.7081   9.7298  14.1103  15.1744  15.2009  15.9801
    16.6403  17.2846  18.6678  26.8447

          k =-0.5000 0.2500 0.0000 (   524 PWs)   bands (ev):

   -74.0601 -38.6615 -38.4648 -38.2841 -34.3843 -34.1659 -34.0015 -33.9361
   -33.5797   1.9212   8.4036  11.8150  14.4635  15.3025  16.1970  16.4575
    17.0673  18.3668  20.1699  23.9268

          k =-0.5000 0.2500 0.2500 (   532 PWs)   bands (ev):

   -74.0722 -38.6236 -38.5500 -38.5291 -34.3131 -34.1588 -34.1200 -34.0969
   -34.0822   2.5222   9.0509  11.6643  12.8669  15.2798  15.4405  15.9451
    16.6444  18.3803  20.6987  21.2139

          k =-0.5000 0.2500-0.5000 (   536 PWs)   bands (ev):

   -74.0791 -38.6953 -38.6072 -38.5625 -34.4965 -34.3048 -34.1412 -34.1406
   -34.0613   3.3452   9.9289   9.9467  12.7052  14.6249  16.0348  16.0592
    16.5408  18.1188  18.2443  22.1578

          k =-0.5000 0.2500-0.2500 (   532 PWs)   bands (ev):

   -74.0722 -38.6240 -38.5623 -38.5163 -34.3131 -34.1588 -34.1206 -34.0964
   -34.0821   2.5224   9.0503  11.6585  12.8691  15.2796  15.4537  15.9607
    16.6305  18.3659  20.7033  21.2091

          k =-0.5000-0.5000 0.0000 (   536 PWs)   bands (ev):

   -74.0859 -38.7010 -38.6917 -38.5455 -34.6581 -34.4653 -34.4633 -33.8974
   -33.7560   2.6706   9.7138   9.7168  14.0865  15.1790  15.1825  15.9956
    16.6552  17.2954  18.6614  26.8610

          k =-0.5000-0.5000 0.2500 (   536 PWs)   bands (ev):

   -74.0791 -38.7181 -38.5778 -38.5690 -34.4947 -34.3065 -34.1408 -34.1388
   -34.0635   3.3481   9.9315   9.9323  12.7191  14.6026  16.0428  16.0448
    16.5561  18.1091  18.2587  22.1741

          k =-0.5000-0.5000-0.5000 (   552 PWs)   bands (ev):

   -74.1048 -38.8460 -38.8071 -38.7922 -34.5909 -34.5888 -34.4068 -34.4064
   -34.4045   4.3469  10.0592  10.0639  10.0776  16.1080  16.1277  17.8216
    17.8463  17.9481  17.9652  17.9839

     the Fermi energy is    16.6789 ev

!    total energy              =    -727.45940673 Ry
     estimated scf accuracy    <       0.00042128 Ry

     convergence has been achieved in   3 iterations

     negative rho (up, down):  8.974E-03 0.000E+00

     Forces acting on atoms (cartesian axes, Ry/au):

     atom    1 type  1   force =    -0.00774665   -0.00020137    0.00034988
     atom    2 type  2   force =     0.00774665    0.00020137   -0.00034988

     Total force =     0.010970     Total SCF correction =     0.005964
     SCF correction compared to forces is large: reduce conv_thr to get better values


     Computing stress (Cartesian axis) and pressure


     negative rho (up, down):  8.974E-03 0.000E+00
          total   stress  (Ry/bohr**3)                   (kbar)     P=   -12915.09
  -0.08762218   0.00005871   0.00031930       -12889.67        8.64       46.97
   0.00005871  -0.08770943  -0.00030367            8.64   -12902.50      -44.67
   0.00031930  -0.00030367  -0.08805334           46.97      -44.67   -12953.09


     Entering Dynamics:    iteration =     4
                           time      =   0.0039 pico-seconds


ATOMIC_POSITIONS (angstrom)
Fe            0.0007467743       -0.0015381192       -0.0007008034
Se            1.5214728388        1.5230888453        1.5224966480


     kinetic energy (Ekin) =           0.00007778 Ry
     temperature           =           8.18729882 K 
     Ekin + Etot (const)   =        -727.45932895 Ry
     Ions kinetic stress =            0.04 (kbar)
                                      0.01          -0.03          -0.02
                                     -0.03           0.09           0.04
                                     -0.02           0.04           0.02



     Linear momentum :   -0.0000000000    0.0000000000    0.0000000000

     Writing config-only to output data dir ./work/try_0/calculation_try_0.save/
     NEW-OLD atomic charge density approx. for the potential

     Check: negative core charge=   -0.000042

     negative rho (up, down):  8.972E-03 0.000E+00

     total cpu time spent up to now is       11.7 secs

     Self-consistent Calculation

     iteration #  1     ecut=    30.00 Ry     beta= 0.70
     Davidson diagonalization with overlap
     ethr =  1.00E-06,  avg # of iterations =  3.1

     negative rho (up, down):  8.965E-03 0.000E+00

     total cpu time spent up to now is       12.3 secs

     total energy              =    -727.45873652 Ry
     estimated scf accuracy    <       0.00198775 Ry

     iteration #  2     ecut=    30.00 Ry     beta= 0.70
     Davidson diagonalization with overlap
     ethr =  6.21E-06,  avg # of iterations =  2.2

     negative rho (up, down):  9.015E-03 0.000E+00

     total cpu time spent up to now is       12.8 secs

     total energy              =    -727.45861930 Ry
     estimated scf accuracy    <       0.00558302 Ry

     iteration #  3     ecut=    30.00 Ry     beta= 0.70
     Davidson diagonalization with overlap
     ethr =  6.21E-06,  avg # of iterations =  2.2

     negative rho (up, down):  8.998E-03 0.000E+00

     total cpu time spent up to now is       13.3 secs

     total energy              =    -727.45920141 Ry
     estimated scf accuracy    <       0.00318880 Ry

     iteration #  4     ecut=    30.00 Ry     beta= 0.70
     Davidson diagonalization with overlap
     ethr =  6.21E-06,  avg # of iterations =  2.0

     negative rho (up, down):  9.029E-03 0.000E+00

     total cpu time spent up to now is       13.8 secs

     End of self-consistent calculation

          k = 0.0000 0.0000 0.0000 (   515 PWs)   bands (ev):

   -74.0580 -38.3299 -38.3227 -38.3157 -34.0091 -34.0086 -34.0076 -33.4961
   -33.4959  -0.3922  14.8504  14.9112  14.9535  14.9605  15.0130  16.3630
    16.3672  16.3707  19.3172  24.1234

          k = 0.0000 0.0000 0.2500 (   526 PWs)   bands (ev):

   -74.0789 -38.6668 -38.4245 -38.4110 -34.2140 -34.2130 -34.0359 -34.0320
   -33.6824   0.3248  10.3256  14.2175  14.2225  15.0118  15.9759  16.3720
    17.4862  17.4888  21.1325  23.7660

          k = 0.0000 0.0000-0.5000 (   498 PWs)   bands (ev):

   -74.0211 -38.3392 -37.9984 -37.9852 -33.6802 -33.6790 -33.4404 -33.1884
   -33.1807   1.3695   7.6011  14.1228  14.1297  15.8860  17.5877  17.6225
    19.3727  19.3757  21.9089  23.4077

          k = 0.0000 0.2500 0.0000 (   526 PWs)   bands (ev):

   -74.0789 -38.6727 -38.4186 -38.4110 -34.2138 -34.2130 -34.0361 -34.0320
   -33.6825   0.3246  10.3274  14.2159  14.2216  15.0153  15.9716  16.3754
    17.4850  17.4879  21.1308  23.7657

          k = 0.0000 0.2500 0.2500 (   533 PWs)   bands (ev):

   -74.0917 -38.6544 -38.6478 -38.4955 -34.3848 -34.3612 -34.1443 -34.1334
   -33.8138   0.9896  10.6971  11.1710  14.4305  15.1977  15.5722  16.1156
    16.6669  18.0545  22.3235  23.5552

          k = 0.0000 0.2500-0.5000 (   524 PWs)   bands (ev):

   -74.0720 -38.6851 -38.4859 -38.2734 -34.3759 -34.1593 -33.9930 -33.9273
   -33.5720   1.9226   8.4156  11.8167  14.4599  15.3010  16.1831  16.4468
    17.0511  18.3648  20.1862  23.9015

          k = 0.0000 0.2500-0.2500 (   533 PWs)   bands (ev):

   -74.0917 -38.6549 -38.6473 -38.4956 -34.3856 -34.3612 -34.1435 -34.1328
   -33.8144   0.9896  10.6977  11.1707  14.4296  15.1952  15.5739  16.1155
    16.6695  18.0536  22.3238  23.5545

          k = 0.0000-0.5000 0.0000 (   498 PWs)   bands (ev):

   -74.0211 -38.3450 -37.9925 -37.9852 -33.6799 -33.6790 -33.4404 -33.1887
   -33.1809   1.3688   7.6037  14.1209  14.1284  15.8898  17.5910  17.6183
    19.3715  19.3743  21.9046  23.4062

          k = 0.0000-0.5000 0.2500 (   524 PWs)   bands (ev):

   -74.0720 -38.6909 -38.4801 -38.2734 -34.3759 -34.1590 -33.9930 -33.9276
   -33.5721   1.9221   8.4184  11.8142  14.4575  15.3043  16.1866  16.4432
    17.0507  18.3635  20.1872  23.8992

          k = 0.0000-0.5000-0.5000 (   536 PWs)   bands (ev):

   -74.0979 -38.7216 -38.7146 -38.5363 -34.6495 -34.4570 -34.4562 -33.8890
   -33.7485   2.6717   9.7173   9.7207  14.1157  15.1719  15.1757  15.9737
    16.6409  17.2942  18.6659  26.8469

          k = 0.2500 0.0000 0.0000 (   526 PWs)   bands (ev):

   -74.0790 -38.6594 -38.4250 -38.4180 -34.2137 -34.2129 -34.0364 -34.0318
   -33.6827   0.3257  10.3158  14.2198  14.2208  15.0178  15.9766  16.3797
    17.4847  17.4862  21.1502  23.7632

          k = 0.2500 0.0000 0.2500 (   533 PWs)   bands (ev):

   -74.0918 -38.6482 -38.6408 -38.5088 -34.3856 -34.3610 -34.1438 -34.1327
   -33.8144   0.9905  10.6858  11.1748  14.4344  15.1977  15.5729  16.1166
    16.6697  18.0545  22.3204  23.5561

          k = 0.2500 0.0000-0.5000 (   524 PWs)   bands (ev):

   -74.0722 -38.6850 -38.4728 -38.2867 -34.3758 -34.1596 -33.9928 -33.9273
   -33.5722   1.9231   8.4179  11.8111  14.4637  15.2971  16.1845  16.4499
    17.0489  18.3641  20.1705  23.9115

          k = 0.2500 0.0000-0.2500 (   533 PWs)   bands (ev):

   -74.0918 -38.6485 -38.6406 -38.5088 -34.3849 -34.3610 -34.1444 -34.1331
   -33.8140   0.9904  10.6888  11.1731  14.4323  15.1951  15.5763  16.1167
    16.6711  18.0526  22.3186  23.5576

          k = 0.2500 0.2500 0.0000 (   533 PWs)   bands (ev):

   -74.0918 -38.6543 -38.6406 -38.5029 -34.3849 -34.3609 -34.1447 -34.1331
   -33.8139   0.9902  10.6884  11.1742  14.4326  15.1979  15.5776  16.1131
    16.6692  18.0532  22.3191  23.5570

          k = 0.2500 0.2500 0.2500 (   528 PWs)   bands (ev):

   -74.0792 -38.7105 -38.4436 -38.4340 -34.2315 -34.2307 -34.1756 -33.8812
   -33.8810   1.6311  11.4731  11.4755  11.5420  15.3310  15.3346  16.2516
    17.5410  17.5420  22.0881  24.1688

          k = 0.2500 0.2500-0.5000 (   532 PWs)   bands (ev):

   -74.0843 -38.6433 -38.5561 -38.5373 -34.3055 -34.1502 -34.1122 -34.0896
   -34.0735   2.5251   9.0623  11.6620  12.8631  15.2720  15.4424  15.9409
    16.6271  18.3668  20.7079  21.2232

          k = 0.2500 0.2500-0.2500 (   528 PWs)   bands (ev):

   -74.0792 -38.7143 -38.4401 -38.4337 -34.2316 -34.2305 -34.1755 -33.8813
   -33.8812   1.6310  11.4746  11.4758  11.5422  15.3293  15.3326  16.2479
    17.5435  17.5462  22.0891  24.1595

          k = 0.2500-0.5000 0.0000 (   524 PWs)   bands (ev):

   -74.0721 -38.6909 -38.4728 -38.2807 -34.3756 -34.1596 -33.9925 -33.9276
   -33.5724   1.9223   8.4203  11.8097  14.4629  15.3012  16.1878  16.4457
    17.0458  18.3631  20.1729  23.9076

          k = 0.2500-0.5000 0.2500 (   532 PWs)   bands (ev):

   -74.0843 -38.6492 -38.5533 -38.5343 -34.3055 -34.1504 -34.1129 -34.0887
   -34.0737   2.5247   9.0650  11.6585  12.8619  15.2747  15.4476  15.9424
    16.6215  18.3630  20.7081  21.2273

          k = 0.2500-0.5000-0.5000 (   536 PWs)   bands (ev):

   -74.0913 -38.7020 -38.6021 -38.5951 -34.4872 -34.2980 -34.1326 -34.1317
   -34.0550   3.3502   9.9357   9.9389  12.7119  14.6286  16.0319  16.0359
    16.5334  18.1285  18.2431  22.1676

          k = 0.2500-0.5000-0.2500 (   532 PWs)   bands (ev):

   -74.0843 -38.6492 -38.5517 -38.5359 -34.3054 -34.1504 -34.1123 -34.0893
   -34.0738   2.5246   9.0649  11.6601  12.8618  15.2767  15.4446  15.9388
    16.6236  18.3654  20.7102  21.2251

          k = 0.2500-0.2500 0.0000 (   533 PWs)   bands (ev):

   -74.0918 -38.6541 -38.6408 -38.5029 -34.3859 -34.3609 -34.1436 -34.1323
   -33.8147   0.9902  10.6882  11.1738  14.4345  15.2003  15.5749  16.1129
    16.6670  18.0544  22.3205  23.5560

          k = 0.2500-0.2500 0.2500 (   528 PWs)   bands (ev):

   -74.0792 -38.7115 -38.4406 -38.4359 -34.2306 -34.2304 -34.1744 -33.8824
   -33.8822   1.6312  11.4728  11.4748  11.5425  15.3311  15.3342  16.2524
    17.5400  17.5424  22.0883  24.1727

          k = 0.2500-0.2500-0.5000 (   532 PWs)   bands (ev):

   -74.0843 -38.6433 -38.5579 -38.5356 -34.3056 -34.1502 -34.1133 -34.0886
   -34.0734   2.5252   9.0622  11.6595  12.8645  15.2716  15.4450  15.9440
    16.6246  18.3647  20.7071  21.2233

          k = 0.2500-0.2500-0.2500 (   528 PWs)   bands (ev):

   -74.0792 -38.7101 -38.4445 -38.4336 -34.2313 -34.2305 -34.1754 -33.8816
   -33.8812   1.6311  11.4736  11.4754  11.5422  15.3296  15.3363  16.2509
    17.5406  17.5421  22.0889  24.1716

          k =-0.5000 0.0000 0.0000 (   498 PWs)   bands (ev):

   -74.0213 -38.3319 -37.9990 -37.9920 -33.6798 -33.6789 -33.4400 -33.1889
   -33.1810   1.3727   7.5886  14.1250  14.1262  15.8979  17.6028  17.6116
    19.3725  19.3740  21.9472  23.4076

          k =-0.5000 0.0000 0.2500 (   524 PWs)   bands (ev):

   -74.0722 -38.6777 -38.4801 -38.2867 -34.3757 -34.1591 -33.9928 -33.9279
   -33.5723   1.9251   8.4052  11.8204  14.4604  15.3018  16.1920  16.4428
    17.0533  18.3635  20.1706  23.9276

          k =-0.5000 0.0000-0.5000 (   536 PWs)   bands (ev):

   -74.0980 -38.7151 -38.7076 -38.5498 -34.6494 -34.4572 -34.4563 -33.8887
   -33.7488   2.6731   9.7141   9.7266  14.0939  15.1729  15.1777  15.9785
    16.6378  17.2949  18.6592  26.8577

          k =-0.5000 0.2500 0.0000 (   524 PWs)   bands (ev):

   -74.0722 -38.6777 -38.4860 -38.2808 -34.3756 -34.1593 -33.9925 -33.9279
   -33.5724   1.9249   8.4050  11.8214  14.4621  15.3026  16.1919  16.4422
    17.0507  18.3638  20.1720  23.9258

          k =-0.5000 0.2500 0.2500 (   532 PWs)   bands (ev):

   -74.0844 -38.6359 -38.5606 -38.5403 -34.3052 -34.1506 -34.1121 -34.0893
   -34.0740   2.5267   9.0527  11.6613  12.8719  15.2765  15.4428  15.9425
    16.6239  18.3639  20.7006  21.2093

          k =-0.5000 0.2500-0.5000 (   536 PWs)   bands (ev):

   -74.0913 -38.7152 -38.5958 -38.5882 -34.4874 -34.2978 -34.1327 -34.1319
   -34.0547   3.3512   9.9333   9.9409  12.7138  14.6068  16.0376  16.0388
    16.5395  18.1099  18.2442  22.1672

          k =-0.5000 0.2500-0.2500 (   532 PWs)   bands (ev):

   -74.0844 -38.6359 -38.5571 -38.5438 -34.3053 -34.1506 -34.1129 -34.0885
   -34.0739   2.5267   9.0529  11.6614  12.8724  15.2766  15.4401  15.9408
    16.6266  18.3649  20.7004  21.2099

          k =-0.5000-0.5000 0.0000 (   536 PWs)   bands (ev):

   -74.0980 -38.7210 -38.7076 -38.5438 -34.6492 -34.4574 -34.4563 -33.8884
   -33.7489   2.6724   9.7128   9.7287  14.0990  15.1755  15.1781  15.9740
    16.6346  17.2933  18.6614  26.8548

          k =-0.5000-0.5000 0.2500 (   536 PWs)   bands (ev):

   -74.0913 -38.7094 -38.6016 -38.5882 -34.4875 -34.2977 -34.1330 -34.1319
   -34.0544   3.3507   9.9326   9.9434  12.7113  14.6120  16.0368  16.0411
    16.5352  18.1128  18.2412  22.1636

          k =-0.5000-0.5000-0.5000 (   552 PWs)   bands (ev):

   -74.1169 -38.8336 -38.8264 -38.8193 -34.5820 -34.5816 -34.3986 -34.3981
   -34.3971   4.3515  10.0661  10.0678  10.0708  16.1052  16.1105  17.8284
    17.8297  17.8893  17.9506  17.9713

     the Fermi energy is    16.6700 ev

!    total energy              =    -727.45959036 Ry
     estimated scf accuracy    <       0.00012006 Ry

     convergence has been achieved in   4 iterations

     negative rho (up, down):  9.029E-03 0.000E+00

     Forces acting on atoms (cartesian axes, Ry/au):

     atom    1 type  1   force =    -0.01682407   -0.00157565   -0.00054933
     atom    2 type  2   force =     0.01682407    0.00157565    0.00054933

     Total force =     0.023910     Total SCF correction =     0.020777
     SCF correction compared to forces is large: reduce conv_thr to get better values


     Computing stress (Cartesian axis) and pressure


     negative rho (up, down):  9.029E-03 0.000E+00
          total   stress  (Ry/bohr**3)                   (kbar)     P=   -12938.29
  -0.08786833  -0.00006446   0.00008739       -12925.88       -9.48       12.86
  -0.00006446  -0.08809831   0.00009014           -9.48   -12959.71       13.26
   0.00008739   0.00009014  -0.08789158           12.86       13.26   -12929.30


     Entering Dynamics:    iteration =     5
                           time      =   0.0048 pico-seconds


ATOMIC_POSITIONS (angstrom)
Fe            0.0008058159       -0.0019298005       -0.0008797374
Se            1.5214310812        1.5233658646        1.5226232003


     kinetic energy (Ekin) =           0.00007421 Ry
     temperature           =           7.81110942 K 
     Ekin + Etot (const)   =        -727.45951615 Ry
     Ions kinetic stress =            0.04 (kbar)
                                      0.01          -0.02          -0.01
                                     -0.02           0.09           0.04
                                     -0.01           0.04           0.02



     Linear momentum :   -0.0000000000   -0.0000000000    0.0000000000

     Writing config-only to output data dir ./work/try_0/calculation_try_0.save/
     NEW-OLD atomic charge density approx. for the potential

     Check: negative core charge=   -0.000042

     negative rho (up, down):  9.026E-03 0.000E+00

     total cpu time spent up to now is       14.3 secs

     Self-consistent Calculation

     iteration #  1     ecut=    30.00 Ry     beta= 0.70
     Davidson diagonalization with overlap
     ethr =  1.00E-06,  avg # of iterations =  2.2

     negative rho (up, down):  9.045E-03 0.000E+00

     total cpu time spent up to now is       14.8 secs

     End of self-consistent calculation

          k = 0.0000 0.0000 0.0000 (   515 PWs)   bands (ev):

   -74.0492 -38.3484 -38.3108 -38.2819 -34.0168 -34.0152 -34.0124 -33.5044
   -33.5002  -0.3936  14.8511  14.9106  14.9558  14.9584  15.0181  16.3590
    16.3696  16.3952  19.3186  24.1284

          k = 0.0000 0.0000 0.2500 (   526 PWs)   bands (ev):

   -74.0700 -38.6857 -38.4060 -38.3833 -34.2200 -34.2174 -34.0443 -34.0367
   -33.6905   0.3221  10.3354  14.2107  14.2193  15.0332  15.9629  16.3969
    17.4818  17.4898  21.1275  23.7647

          k = 0.0000 0.0000-0.5000 (   498 PWs)   bands (ev):

   -74.0123 -38.3576 -37.9801 -37.9579 -33.6859 -33.6833 -33.4452 -33.1970
   -33.1889   1.3634   7.6154  14.1154  14.1248  15.9091  17.6061  17.6173
    19.3671  19.3733  21.8917  23.4003

          k = 0.0000 0.2500 0.0000 (   526 PWs)   bands (ev):

   -74.0701 -38.6462 -38.4407 -38.3884 -34.2216 -34.2201 -34.0405 -34.0399
   -33.6869   0.3240  10.3193  14.2223  14.2310  15.0091  15.9919  16.3702
    17.4875  17.5014  21.1364  23.7724

          k = 0.0000 0.2500 0.2500 (   533 PWs)   bands (ev):

   -74.0830 -38.6711 -38.6228 -38.4766 -34.3913 -34.3677 -34.1504 -34.1398
   -33.8201   0.9876  10.6976  11.1722  14.4291  15.1987  15.5910  16.1181
    16.6780  18.0539  22.3254  23.5559

          k = 0.0000 0.2500-0.5000 (   524 PWs)   bands (ev):

   -74.0632 -38.7037 -38.4579 -38.2554 -34.3821 -34.1632 -33.9995 -33.9359
   -33.5787   1.9176   8.4303  11.8041  14.4533  15.3215  16.2077  16.4379
    17.0517  18.3613  20.1963  23.8912

          k = 0.0000 0.2500-0.2500 (   533 PWs)   bands (ev):

   -74.0830 -38.6708 -38.6234 -38.4765 -34.3919 -34.3677 -34.1498 -34.1393
   -33.8205   0.9876  10.6991  11.1695  14.4372  15.2114  15.5742  16.1178
    16.6658  18.0629  22.3247  23.5583

          k = 0.0000-0.5000 0.0000 (   498 PWs)   bands (ev):

   -74.0124 -38.3184 -38.0148 -37.9631 -33.6874 -33.6864 -33.4483 -33.1927
   -33.1852   1.3700   7.5928  14.1298  14.1375  15.8822  17.5839  17.6403
    19.3757  19.3877  21.9197  23.4157

          k = 0.0000-0.5000 0.2500 (   524 PWs)   bands (ev):

   -74.0633 -38.6647 -38.4974 -38.2554 -34.3828 -34.1673 -33.9995 -33.9317
   -33.5779   1.9219   8.4061  11.8259  14.4732  15.2996  16.1798  16.4614
    17.0550  18.3709  20.1877  23.9075

          k = 0.0000-0.5000-0.5000 (   536 PWs)   bands (ev):

   -74.0891 -38.7378 -38.6898 -38.5174 -34.6561 -34.4651 -34.4609 -33.8955
   -33.7548   2.6688   9.7037   9.7337  14.1247  15.1667  15.1991  15.9767
    16.6437  17.2911  18.6746  26.8462

          k = 0.2500 0.0000 0.0000 (   526 PWs)   bands (ev):

   -74.0703 -38.6440 -38.4401 -38.3912 -34.2216 -34.2176 -34.0429 -34.0381
   -33.6892   0.3242  10.3152  14.2181  14.2288  15.0199  15.9866  16.3833
    17.4831  17.4977  21.1540  23.7647

          k = 0.2500 0.0000 0.2500 (   533 PWs)   bands (ev):

   -74.0830 -38.6715 -38.6200 -38.4791 -34.3931 -34.3655 -34.1512 -34.1374
   -33.8222   0.9876  10.6895  11.1782  14.4317  15.2052  15.5965  16.1118
    16.6745  18.0516  22.3240  23.5541

          k = 0.2500 0.0000-0.5000 (   524 PWs)   bands (ev):

   -74.0633 -38.7038 -38.4555 -38.2578 -34.3801 -34.1659 -33.9968 -33.9359
   -33.5807   1.9170   8.4318  11.8043  14.4608  15.3210  16.2087  16.4404
    17.0434  18.3575  20.1825  23.8955

          k = 0.2500 0.0000-0.2500 (   533 PWs)   bands (ev):

   -74.0830 -38.6711 -38.6206 -38.4790 -34.3925 -34.3655 -34.1517 -34.1376
   -33.8219   0.9875  10.6937  11.1739  14.4393  15.2171  15.5800  16.1117
    16.6616  18.0605  22.3211  23.5588

          k = 0.2500 0.2500 0.0000 (   533 PWs)   bands (ev):

   -74.0831 -38.6353 -38.6195 -38.5161 -34.3904 -34.3691 -34.1499 -34.1410
   -33.8189   0.9896  10.6846  11.1723  14.4383  15.1981  15.5699  16.1346
    16.6823  18.0593  22.3183  23.5626

          k = 0.2500 0.2500 0.2500 (   528 PWs)   bands (ev):

   -74.0704 -38.7184 -38.4265 -38.4159 -34.2385 -34.2363 -34.1818 -33.8882
   -33.8870   1.6291  11.4704  11.4804  11.5423  15.3344  15.3372  16.2510
    17.5536  17.5567  22.0879  24.1675

          k = 0.2500 0.2500-0.5000 (   532 PWs)   bands (ev):

   -74.0755 -38.6634 -38.5429 -38.5031 -34.3102 -34.1584 -34.1177 -34.0946
   -34.0821   2.5200   9.0767  11.6523  12.8538  15.2949  15.4666  15.9445
    16.6153  18.3584  20.7213  21.2370

          k = 0.2500 0.2500-0.2500 (   528 PWs)   bands (ev):

   -74.0705 -38.6768 -38.4579 -38.4265 -34.2388 -34.2361 -34.1818 -33.8882
   -33.8872   1.6291  11.4678  11.4757  11.5464  15.3351  15.3554  16.2712
    17.5338  17.5365  22.0921  24.1546

          k = 0.2500-0.5000 0.0000 (   524 PWs)   bands (ev):

   -74.0635 -38.6642 -38.4570 -38.2963 -34.3840 -34.1662 -34.0010 -33.9317
   -33.5767   1.9236   8.4096  11.8152  14.4681  15.2917  16.1819  16.4667
    17.0671  18.3686  20.1655  23.9256

          k = 0.2500-0.5000 0.2500 (   532 PWs)   bands (ev):

   -74.0756 -38.6256 -38.5639 -38.5202 -34.3137 -34.1548 -34.1203 -34.0962
   -34.0777   2.5245   9.0532  11.6698  12.8680  15.2669  15.4378  15.9476
    16.6470  18.3832  20.7012  21.2232

          k = 0.2500-0.5000-0.5000 (   536 PWs)   bands (ev):

   -74.0826 -38.6888 -38.6160 -38.5672 -34.4935 -34.3045 -34.1406 -34.1363
   -34.0614   3.3471   9.9232   9.9524  12.7108  14.6388  16.0244  16.0574
    16.5364  18.1366  18.2451  22.1542

          k = 0.2500-0.5000-0.2500 (   532 PWs)   bands (ev):

   -74.0756 -38.6251 -38.5739 -38.5106 -34.3137 -34.1548 -34.1199 -34.0967
   -34.0778   2.5246   9.0522  11.6651  12.8698  15.2690  15.4494  15.9620
    16.6336  18.3690  20.7082  21.2155

          k = 0.2500-0.2500 0.0000 (   533 PWs)   bands (ev):

   -74.0831 -38.6363 -38.6183 -38.5161 -34.3911 -34.3690 -34.1492 -34.1405
   -33.8195   0.9896  10.6829  11.1745  14.4332  15.1895  15.5813  16.1347
    16.6905  18.0534  22.3201  23.5596

          k = 0.2500-0.2500 0.2500 (   528 PWs)   bands (ev):

   -74.0704 -38.7115 -38.4511 -38.3982 -34.2384 -34.2355 -34.1810 -33.8890
   -33.8879   1.6291  11.4712  11.4779  11.5428  15.3235  15.3514  16.2546
    17.5505  17.5528  22.0880  24.1817

          k = 0.2500-0.2500-0.5000 (   532 PWs)   bands (ev):

   -74.0755 -38.6637 -38.5274 -38.5184 -34.3103 -34.1584 -34.1184 -34.0940
   -34.0820   2.5200   9.0773  11.6552  12.8526  15.2950  15.4576  15.9354
    16.6245  18.3677  20.7167  21.2413

          k = 0.2500-0.2500-0.2500 (   528 PWs)   bands (ev):

   -74.0704 -38.7100 -38.4517 -38.3992 -34.2389 -34.2356 -34.1818 -33.8883
   -33.8873   1.6290  11.4724  11.4783  11.5424  15.3220  15.3526  16.2539
    17.5507  17.5532  22.0888  24.1649

          k =-0.5000 0.0000 0.0000 (   498 PWs)   bands (ev):

   -74.0126 -38.3163 -38.0143 -37.9658 -33.6875 -33.6836 -33.4461 -33.1954
   -33.1875   1.3710   7.5879  14.1232  14.1349  15.8999  17.6022  17.6266
    19.3715  19.3839  21.9530  23.4092

          k =-0.5000 0.0000 0.2500 (   524 PWs)   bands (ev):

   -74.0635 -38.6625 -38.4970 -38.2579 -34.3804 -34.1673 -33.9969 -33.9344
   -33.5804   1.9219   8.4032  11.8278  14.4727  15.3078  16.1942  16.4526
    17.0504  18.3651  20.1768  23.9239

          k =-0.5000 0.0000-0.5000 (   536 PWs)   bands (ev):

   -74.0892 -38.7382 -38.6869 -38.5200 -34.6539 -34.4650 -34.4635 -33.8927
   -33.7571   2.6670   9.7073   9.7396  14.1174  15.1761  15.2006  15.9726
    16.6319  17.2829  18.6706  26.8454

          k =-0.5000 0.2500 0.0000 (   524 PWs)   bands (ev):

   -74.0636 -38.6619 -38.4590 -38.2965 -34.3835 -34.1635 -34.0010 -33.9344
   -33.5772   1.9242   8.4052  11.8169  14.4601  15.3002  16.1954  16.4557
    17.0705  18.3666  20.1685  23.9378

          k =-0.5000 0.2500 0.2500 (   532 PWs)   bands (ev):

   -74.0756 -38.6239 -38.5629 -38.5228 -34.3115 -34.1570 -34.1186 -34.0953
   -34.0805   2.5244   9.0521  11.6663  12.8712  15.2780  15.4394  15.9434
    16.6429  18.3787  20.6993  21.2122

          k =-0.5000 0.2500-0.5000 (   536 PWs)   bands (ev):

   -74.0825 -38.6906 -38.6169 -38.5645 -34.4957 -34.3023 -34.1406 -34.1390
   -34.0588   3.3458   9.9291   9.9558  12.7024  14.6304  16.0329  16.0608
    16.5341  18.1229  18.2373  22.1536

          k =-0.5000 0.2500-0.2500 (   532 PWs)   bands (ev):

[...]
     estimated scf accuracy    <       0.13897343 Ry

     iteration # 54     ecut=    30.00 Ry     beta= 0.70
     Davidson diagonalization with overlap
     ethr =  6.99E-06,  avg # of iterations =  7.2

     negative rho (up, down):  5.667E-01 0.000E+00

     total cpu time spent up to now is       55.8 secs

     total energy              =    -727.05921805 Ry
     estimated scf accuracy    <       1.57056650 Ry

     iteration # 55     ecut=    30.00 Ry     beta= 0.70
     Davidson diagonalization with overlap
     ethr =  6.99E-06,  avg # of iterations =  6.5

     negative rho (up, down):  6.463E-02 0.000E+00

     total cpu time spent up to now is       56.6 secs

     total energy              =    -727.40603732 Ry
     estimated scf accuracy    <       0.10377604 Ry

     iteration # 56     ecut=    30.00 Ry     beta= 0.70
     Davidson diagonalization with overlap
     ethr =  6.99E-06,  avg # of iterations =  6.7

     negative rho (up, down):  8.465E-02 0.000E+00

     total cpu time spent up to now is       57.5 secs

     total energy              =    -727.50082666 Ry
     estimated scf accuracy    <       0.13030494 Ry

     iteration # 57     ecut=    30.00 Ry     beta= 0.70
     Davidson diagonalization with overlap
     ethr =  6.99E-06,  avg # of iterations =  4.2

     negative rho (up, down):  1.285E-01 0.000E+00

     total cpu time spent up to now is       58.1 secs

     total energy              =    -727.45086219 Ry
     estimated scf accuracy    <       0.23891388 Ry

     iteration # 58     ecut=    30.00 Ry     beta= 0.70
     Davidson diagonalization with overlap
     ethr =  6.99E-06,  avg # of iterations =  5.5

     negative rho (up, down):  9.905E-02 0.000E+00

     total cpu time spent up to now is       58.8 secs

     total energy              =    -727.44025173 Ry
     estimated scf accuracy    <       0.09242633 Ry

     iteration # 59     ecut=    30.00 Ry     beta= 0.70
     Davidson diagonalization with overlap
     ethr =  6.99E-06,  avg # of iterations =  5.7

     negative rho (up, down):  7.063E-02 0.000E+00

     total cpu time spent up to now is       59.6 secs

     total energy              =    -727.43557358 Ry
     estimated scf accuracy    <       0.17341901 Ry

     iteration # 60     ecut=    30.00 Ry     beta= 0.70
     Davidson diagonalization with overlap
     ethr =  6.99E-06,  avg # of iterations =  4.7

     negative rho (up, down):  4.201E-02 0.000E+00

     total cpu time spent up to now is       60.2 secs

     total energy              =    -727.44850088 Ry
     estimated scf accuracy    <       0.11295499 Ry

     iteration # 61     ecut=    30.00 Ry     beta= 0.70
     Davidson diagonalization with overlap
     ethr =  6.99E-06,  avg # of iterations =  4.1

     negative rho (up, down):  4.929E-02 0.000E+00

     total cpu time spent up to now is       60.9 secs

     total energy              =    -727.42228116 Ry
     estimated scf accuracy    <       0.14476431 Ry

     iteration # 62     ecut=    30.00 Ry     beta= 0.70
     Davidson diagonalization with overlap
     ethr =  6.99E-06,  avg # of iterations =  4.4

     negative rho (up, down):  4.173E-02 0.000E+00

     total cpu time spent up to now is       61.6 secs

     total energy              =    -727.42517442 Ry
     estimated scf accuracy    <       0.17051093 Ry

     iteration # 63     ecut=    30.00 Ry     beta= 0.70
     Davidson diagonalization with overlap
     ethr =  6.99E-06,  avg # of iterations =  4.5

     negative rho (up, down):  3.514E-02 0.000E+00

     total cpu time spent up to now is       62.3 secs

     total energy              =    -727.44185376 Ry
     estimated scf accuracy    <       0.18756416 Ry

     iteration # 64     ecut=    30.00 Ry     beta= 0.70
     Davidson diagonalization with overlap
     ethr =  6.99E-06,  avg # of iterations =  4.4

     negative rho (up, down):  5.919E-02 0.000E+00

     total cpu time spent up to now is       63.0 secs

     total energy              =    -727.34610435 Ry
     estimated scf accuracy    <       0.23813258 Ry

     iteration # 65     ecut=    30.00 Ry     beta= 0.70
     Davidson diagonalization with overlap
     ethr =  6.99E-06,  avg # of iterations =  5.3

     negative rho (up, down):  3.434E-02 0.000E+00

     total cpu time spent up to now is       63.7 secs

     total energy              =    -727.37887088 Ry
     estimated scf accuracy    <       0.26675336 Ry

     iteration # 66     ecut=    30.00 Ry     beta= 0.70
     Davidson diagonalization with overlap
     ethr =  6.99E-06,  avg # of iterations =  4.6

     negative rho (up, down):  3.110E-02 0.000E+00

     total cpu time spent up to now is       64.4 secs

     total energy              =    -727.38169689 Ry
     estimated scf accuracy    <       0.32059968 Ry

     iteration # 67     ecut=    30.00 Ry     beta= 0.70
     Davidson diagonalization with overlap
     ethr =  6.99E-06,  avg # of iterations =  3.4

     negative rho (up, down):  3.849E-02 0.000E+00

     total cpu time spent up to now is       65.1 secs

     total energy              =    -727.39082503 Ry
     estimated scf accuracy    <       0.29951396 Ry

     iteration # 68     ecut=    30.00 Ry     beta= 0.70
     Davidson diagonalization with overlap
     ethr =  6.99E-06,  avg # of iterations =  2.9

     negative rho (up, down):  4.993E-02 0.000E+00

     total cpu time spent up to now is       65.7 secs

     total energy              =    -727.38820440 Ry
     estimated scf accuracy    <       0.31460121 Ry

     iteration # 69     ecut=    30.00 Ry     beta= 0.70
     Davidson diagonalization with overlap
     ethr =  6.99E-06,  avg # of iterations =  3.9

     negative rho (up, down):  3.964E-02 0.000E+00

     total cpu time spent up to now is       66.3 secs

     total energy              =    -727.35576057 Ry
     estimated scf accuracy    <       0.36093751 Ry

     iteration # 70     ecut=    30.00 Ry     beta= 0.70
     Davidson diagonalization with overlap
     ethr =  6.99E-06,  avg # of iterations =  2.7

     negative rho (up, down):  6.037E-02 0.000E+00

     total cpu time spent up to now is       66.9 secs

     total energy              =    -727.31467755 Ry
     estimated scf accuracy    <       0.29334071 Ry

     iteration # 71     ecut=    30.00 Ry     beta= 0.70
     Davidson diagonalization with overlap
     ethr =  6.99E-06,  avg # of iterations =  5.4

     negative rho (up, down):  2.376E-02 0.000E+00

     total cpu time spent up to now is       67.6 secs

     total energy              =    -727.37238559 Ry
     estimated scf accuracy    <       0.35366317 Ry

     iteration # 72     ecut=    30.00 Ry     beta= 0.70
     Davidson diagonalization with overlap
     ethr =  6.99E-06,  avg # of iterations =  4.6

     negative rho (up, down):  1.194E-02 0.000E+00

     total cpu time spent up to now is       68.3 secs

     total energy              =    -727.44922950 Ry
     estimated scf accuracy    <       0.34477282 Ry

     iteration # 73     ecut=    30.00 Ry     beta= 0.70
     Davidson diagonalization with overlap
     ethr =  6.99E-06,  avg # of iterations =  5.2

     negative rho (up, down):  2.409E-02 0.000E+00

     total cpu time spent up to now is       69.0 secs

     total energy              =    -727.45953943 Ry
     estimated scf accuracy    <       0.23721515 Ry

     iteration # 74     ecut=    30.00 Ry     beta= 0.70
     Davidson diagonalization with overlap
     ethr =  6.99E-06,  avg # of iterations =  5.7

     negative rho (up, down):  1.476E-02 0.000E+00

     total cpu time spent up to now is       69.7 secs

     total energy              =    -727.43637912 Ry
     estimated scf accuracy    <       0.39507431 Ry

     iteration # 75     ecut=    30.00 Ry     beta= 0.70
     Davidson diagonalization with overlap
     ethr =  6.99E-06,  avg # of iterations =  3.8

     negative rho (up, down):  3.786E-02 0.000E+00

     total cpu time spent up to now is       70.3 secs

     total energy              =    -727.45183935 Ry
     estimated scf accuracy    <       0.17661126 Ry

     iteration # 76     ecut=    30.00 Ry     beta= 0.70
     Davidson diagonalization with overlap
     ethr =  6.99E-06,  avg # of iterations =  5.7

     negative rho (up, down):  2.874E-02 0.000E+00

     total cpu time spent up to now is       71.0 secs

     total energy              =    -727.45225131 Ry
     estimated scf accuracy    <       0.14790054 Ry

     iteration # 77     ecut=    30.00 Ry     beta= 0.70
     Davidson diagonalization with overlap
     ethr =  6.99E-06,  avg # of iterations =  3.3

     negative rho (up, down):  2.068E-02 0.000E+00

     total cpu time spent up to now is       71.7 secs

     total energy              =    -727.43114792 Ry
     estimated scf accuracy    <       0.13125736 Ry

     iteration # 78     ecut=    30.00 Ry     beta= 0.70
     Davidson diagonalization with overlap
     ethr =  6.99E-06,  avg # of iterations =  3.8

     negative rho (up, down):  1.746E-02 0.000E+00

     total cpu time spent up to now is       72.3 secs

     total energy              =    -727.43520066 Ry
     estimated scf accuracy    <       0.12929887 Ry

     iteration # 79     ecut=    30.00 Ry     beta= 0.70
     Davidson diagonalization with overlap
     ethr =  6.99E-06,  avg # of iterations =  5.6

     negative rho (up, down):  1.478E-02 0.000E+00

     total cpu time spent up to now is       73.0 secs

     total energy              =    -727.43854003 Ry
     estimated scf accuracy    <       0.23406222 Ry

     iteration # 80     ecut=    30.00 Ry     beta= 0.70
     Davidson diagonalization with overlap
     ethr =  6.99E-06,  avg # of iterations =  4.3

     negative rho (up, down):  3.106E-02 0.000E+00

     total cpu time spent up to now is       73.6 secs

     total energy              =    -727.43386721 Ry
     estimated scf accuracy    <       0.21385754 Ry

     iteration # 81     ecut=    30.00 Ry     beta= 0.70
     Davidson diagonalization with overlap
     ethr =  6.99E-06,  avg # of iterations =  5.4

     negative rho (up, down):  1.969E-02 0.000E+00

     total cpu time spent up to now is       74.3 secs

     total energy              =    -727.41843975 Ry
     estimated scf accuracy    <       0.14310955 Ry

     iteration # 82     ecut=    30.00 Ry     beta= 0.70
     Davidson diagonalization with overlap
     ethr =  6.99E-06,  avg # of iterations =  5.0

     negative rho (up, down):  2.199E-02 0.000E+00

     total cpu time spent up to now is       75.0 secs

     total energy              =    -727.43797600 Ry
     estimated scf accuracy    <       0.14028065 Ry

     iteration # 83     ecut=    30.00 Ry     beta= 0.70
     Davidson diagonalization with overlap
     ethr =  6.99E-06,  avg # of iterations =  6.2

     negative rho (up, down):  3.626E-02 0.000E+00

     total cpu time spent up to now is       75.8 secs

     total energy              =    -727.45772664 Ry
     estimated scf accuracy    <       0.25928905 Ry

     iteration # 84     ecut=    30.00 Ry     beta= 0.70
     Davidson diagonalization with overlap
     ethr =  6.99E-06,  avg # of iterations =  4.6

     negative rho (up, down):  6.510E-02 0.000E+00

     total cpu time spent up to now is       76.4 secs

     total energy              =    -727.43102947 Ry
     estimated scf accuracy    <       0.35696369 Ry

     iteration # 85     ecut=    30.00 Ry     beta= 0.70
     Davidson diagonalization with overlap
     ethr =  6.99E-06,  avg # of iterations =  4.8

     negative rho (up, down):  1.831E-02 0.000E+00

     total cpu time spent up to now is       77.1 secs

     total energy              =    -727.44875466 Ry
     estimated scf accuracy    <       0.40693932 Ry

     iteration # 86     ecut=    30.00 Ry     beta= 0.70
     Davidson diagonalization with overlap
     ethr =  6.99E-06,  avg # of iterations =  5.0

     negative rho (up, down):  3.024E-02 0.000E+00

     total cpu time spent up to now is       77.8 secs

     total energy              =    -727.44691805 Ry
     estimated scf accuracy    <       0.25310634 Ry

     iteration # 87     ecut=    30.00 Ry     beta= 0.70
     Davidson diagonalization with overlap
     ethr =  6.99E-06,  avg # of iterations =  3.6

     negative rho (up, down):  5.845E-02 0.000E+00

     total cpu time spent up to now is       78.5 secs

     total energy              =    -727.50829414 Ry
     estimated scf accuracy    <       0.10973568 Ry

     iteration # 88     ecut=    30.00 Ry     beta= 0.70
     Davidson diagonalization with overlap
     ethr =  6.99E-06,  avg # of iterations =  7.2

     negative rho (up, down):  6.565E-01 0.000E+00

     total cpu time spent up to now is       79.3 secs

     total energy              =    -726.93878669 Ry
     estimated scf accuracy    <       2.13611117 Ry

     iteration # 89     ecut=    30.00 Ry     beta= 0.70
     Davidson diagonalization with overlap
     ethr =  6.99E-06,  avg # of iterations =  6.9

     negative rho (up, down):  3.822E-02 0.000E+00

     total cpu time spent up to now is       80.2 secs

     total energy              =    -727.37726681 Ry
     estimated scf accuracy    <       0.11269936 Ry

     iteration # 90     ecut=    30.00 Ry     beta= 0.70
     Davidson diagonalization with overlap
     ethr =  6.99E-06,  avg # of iterations =  5.9

     negative rho (up, down):  1.527E-02 0.000E+00

     total cpu time spent up to now is       81.0 secs

     total energy              =    -727.41715150 Ry
     estimated scf accuracy    <       0.05923923 Ry

     iteration # 91     ecut=    30.00 Ry     beta= 0.70
     Davidson diagonalization with overlap
     ethr =  6.99E-06,  avg # of iterations =  5.1

     negative rho (up, down):  2.078E-02 0.000E+00

     total cpu time spent up to now is       81.7 secs

     total energy              =    -727.42858723 Ry
     estimated scf accuracy    <       0.15588073 Ry

     iteration # 92     ecut=    30.00 Ry     beta= 0.70
     Davidson diagonalization with overlap
     ethr =  6.99E-06,  avg # of iterations =  3.4

     negative rho (up, down):  3.214E-02 0.000E+00

     total cpu time spent up to now is       82.2 secs

     total energy              =    -727.45365261 Ry
     estimated scf accuracy    <       0.09643077 Ry

     iteration # 93     ecut=    30.00 Ry     beta= 0.70
     Davidson diagonalization with overlap
     ethr =  6.99E-06,  avg # of iterations =  4.2

     negative rho (up, down):  3.072E-02 0.000E+00

     total cpu time spent up to now is       82.9 secs

     total energy              =    -727.44711613 Ry
     estimated scf accuracy    <       0.12673481 Ry

     iteration # 94     ecut=    30.00 Ry     beta= 0.70
     Davidson diagonalization with overlap
     ethr =  6.99E-06,  avg # of iterations =  4.9

     negative rho (up, down):  3.371E-02 0.000E+00

     total cpu time spent up to now is       83.6 secs

     total energy              =    -727.45919008 Ry
     estimated scf accuracy    <       0.17842221 Ry

     iteration # 95     ecut=    30.00 Ry     beta= 0.70
     Davidson diagonalization with overlap
     ethr =  6.99E-06,  avg # of iterations =  5.1

     negative rho (up, down):  4.342E-02 0.000E+00

     total cpu time spent up to now is       84.3 secs

     total energy              =    -727.46104844 Ry
     estimated scf accuracy    <       0.23074967 Ry

     iteration # 96     ecut=    30.00 Ry     beta= 0.70
     Davidson diagonalization with overlap
     ethr =  6.99E-06,  avg # of iterations =  5.0

     negative rho (up, down):  5.180E-02 0.000E+00

     total cpu time spent up to now is       85.0 secs

     total energy              =    -727.44718117 Ry
     estimated scf accuracy    <       0.22078156 Ry

     iteration # 97     ecut=    30.00 Ry     beta= 0.70
     Davidson diagonalization with overlap
     ethr =  6.99E-06,  avg # of iterations =  4.6

     negative rho (up, down):  6.258E-02 0.000E+00

     total cpu time spent up to now is       85.6 secs

     total energy              =    -727.44586720 Ry
     estimated scf accuracy    <       0.18660531 Ry

     iteration # 98     ecut=    30.00 Ry     beta= 0.70
     Davidson diagonalization with overlap
     ethr =  6.99E-06,  avg # of iterations =  3.9

     negative rho (up, down):  9.054E-02 0.000E+00

     total cpu time spent up to now is       86.3 secs

     total energy              =    -727.36052778 Ry
     estimated scf accuracy    <       0.15752937 Ry

     iteration # 99     ecut=    30.00 Ry     beta= 0.70
     Davidson diagonalization with overlap
     ethr =  6.99E-06,  avg # of iterations =  5.8

     negative rho (up, down):  7.097E-02 0.000E+00

     total cpu time spent up to now is       87.0 secs

     total energy              =    -727.33254985 Ry
     estimated scf accuracy    <       0.17999250 Ry

     iteration #100     ecut=    30.00 Ry     beta= 0.70
     Davidson diagonalization with overlap
     ethr =  6.99E-06,  avg # of iterations =  4.9

     negative rho (up, down):  6.836E-02 0.000E+00

     total cpu time spent up to now is       87.7 secs

     total energy              =    -727.31085767 Ry
     estimated scf accuracy    <       0.24276898 Ry

     End of self-consistent calculation

     convergence NOT achieved after 100 iterations: stopping

     Writing config to output data dir ./work/try_0/calculation_try_0.save/

     init_run     :      0.52s CPU      0.53s WALL (       1 calls)
     electrons    :     77.87s CPU     83.23s WALL (       9 calls)
     update_pot   :      1.07s CPU      1.10s WALL (       8 calls)
     forces       :      0.24s CPU      0.29s WALL (       8 calls)
     stress       :      1.21s CPU      1.18s WALL (       8 calls)

     Called by init_run:
     wfcinit      :      0.11s CPU      0.11s WALL (       1 calls)
     potinit      :      0.13s CPU      0.14s WALL (       1 calls)
     hinit0       :      0.27s CPU      0.27s WALL (       1 calls)

     Called by electrons:
     c_bands      :     51.77s CPU     56.27s WALL (     127 calls)
     sum_band     :      8.03s CPU      8.39s WALL (     127 calls)
     v_of_rho     :      0.44s CPU      0.47s WALL (     136 calls)
     newd         :      0.76s CPU      0.78s WALL (     136 calls)
     PAW_pot      :     18.97s CPU     19.45s WALL (     144 calls)
     mix_rho      :      0.09s CPU      0.10s WALL (     127 calls)

     Called by c_bands:
     init_us_2    :      0.74s CPU      0.84s WALL (   10044 calls)
     init_us_2:cp :      0.74s CPU      0.83s WALL (   10044 calls)
     cegterg      :     50.31s CPU     54.67s WALL (    4572 calls)

     Called by *egterg:
     cdiaghg      :      7.20s CPU      7.34s WALL (   23123 calls)
     h_psi        :     36.29s CPU     38.19s WALL (   23447 calls)
     s_psi        :      1.09s CPU      1.42s WALL (   23447 calls)
     g_psi        :      0.13s CPU      0.14s WALL (   18839 calls)

     Called by h_psi:
     h_psi:calbec :      1.14s CPU      1.87s WALL (   23447 calls)
     vloc_psi     :     33.88s CPU     34.61s WALL (   23447 calls)
     add_vuspsi   :      1.15s CPU      1.51s WALL (   23447 calls)

     General routines
     calbec       :      1.56s CPU      2.51s WALL (   29747 calls)
     fft          :      0.27s CPU      0.28s WALL (    1960 calls)
     ffts         :      0.03s CPU      0.03s WALL (     263 calls)
     fftw         :     34.77s CPU     35.43s WALL (  666010 calls)
     interpolate  :      0.03s CPU      0.04s WALL (     136 calls)
     davcio       :      0.00s CPU      0.00s WALL (      54 calls)

     Parallel routines

     PWSCF        :   1m22.23s CPU   1m27.72s WALL


   This run was terminated on:  17:49: 2  29Dec2024            

=------------------------------------------------------------------------------=
   JOB DONE.
=------------------------------------------------------------------------------=
